[Molden Format]
[Atoms] Angs
 O    1    8         0.0000000000        0.0000000000        0.0000000000
 H    2    1         0.0000000000       -0.7572153431        0.5865355234
 H    3    1         0.0000000000        0.7572153431        0.5865355234
[GTO]
   1
    S     3
          130.7093213626        0.1543289673
           23.8088660527        0.5353281423
            6.4436083132        0.4446345422
    S     3
            5.0331513186       -0.0999672292
            1.1695961248        0.3995128261
            0.3803889600        0.7001154689
    P     3
            5.0331513186        0.1559162750
            1.1695961248        0.6076837186
            0.3803889600        0.3919573931
 
   2
    S     3
            3.4252509140        0.1543289673
            0.6239137298        0.5353281423
            0.1688554040        0.4446345422
 
   3
    S     3
            3.4252509140        0.1543289673
            0.6239137298        0.5353281423
            0.1688554040        0.4446345422
 
[MO]
 Ene=       2.0000
 Spin= Alpha
 Occup=   1.000000
   1  -1.02582551092
   2   0.23443552400
   3   0.00000717794
   4   0.00000000145
   5  -0.07935568881
   6   0.00180841835
   7   0.00180840886
 Ene=       2.0000
 Spin= Alpha
 Occup=   1.000000
   1  -0.01451691554
   2  -0.97017605427
   3   0.00001216129
   4  -0.00000000083
   5   0.27851502598
   6   0.01674766894
   7   0.01674771632
 Ene=       2.0000
 Spin= Alpha
 Occup=   1.000000
   1   0.00000754064
   2   0.00001011311
   3   0.99999999990
   4   0.00000000000
   5  -0.00000282754
   6  -0.00000021728
   7  -0.00000021728
 Ene=       1.0000
 Spin= Alpha
 Occup=   1.000000
   1  -0.05259108110
   2   0.17386991643
   3   0.00000000830
   4  -0.58254023836
   5   0.69647296601
   6   0.15078135265
   7  -0.02793615474
 Ene=       1.0000
 Spin= Alpha
 Occup=   1.000000
   1   0.00751446393
   2  -0.21782546488
   3   0.00000000628
   4  -0.18205445918
   5   0.32660927615
   6   0.87853614250
   7  -0.07321235983
 Ene=       1.0000
 Spin= Alpha
 Occup=   1.000000
   1   0.05259108217
   2  -0.17386993548
   3  -0.00000000830
   4  -0.58254026040
   5  -0.69647293553
   6   0.02793617580
   7  -0.15078136223
 Ene=       1.0000
 Spin= Alpha
 Occup=   1.000000
   1  -0.00751445747
   2   0.21782541922
   3  -0.00000000628
   4  -0.18205445521
   5  -0.32660925784
   6   0.07321239084
   7  -0.87853614913
