----- GAMESS execution script 'rungms' -----
This job is running on host titch-64
under operating system Linux at Mon Oct 14 07:29:21 EST 2013
Available scratch disk space (Kbyte units) at beginning of the job is
Filesystem     1K-blocks      Used Available Use% Mounted on
/dev/sda1      945022356 138266060 758751944  16% /
GAMESS temporary binary files will be written to /scr/brian
GAMESS supplementary output files will be written to /home/brian/scr
Copying input file exam-vb14.inp to your run's scratch directory...
cp tests/exam-vb14.inp /scr/brian/exam-vb14.F05
unset echo
/home/brian/qchem/gamess/ddikick.x /home/brian/qchem/gamess/gamess.01.x exam-vb14 -ddi 1 1 titch-64 -scr /scr/brian

 Distributed Data Interface kickoff program.
 Initiating 1 compute processes on 1 nodes to run the following command:
 /home/brian/qchem/gamess/gamess.01.x exam-vb14 

          ******************************************************
          *         GAMESS VERSION =  1 MAY 2013 (R1)          *
          *             FROM IOWA STATE UNIVERSITY             *
          * M.W.SCHMIDT, K.K.BALDRIDGE, J.A.BOATZ, S.T.ELBERT, *
          *   M.S.GORDON, J.H.JENSEN, S.KOSEKI, N.MATSUNAGA,   *
          *          K.A.NGUYEN, S.J.SU, T.L.WINDUS,           *
          *       TOGETHER WITH M.DUPUIS, J.A.MONTGOMERY       *
          *         J.COMPUT.CHEM.  14, 1347-1363(1993)        *
          **************** 64 BIT LINUX VERSION ****************

  SINCE 1993, STUDENTS AND POSTDOCS WORKING AT IOWA STATE UNIVERSITY
  AND ALSO IN THEIR VARIOUS JOBS AFTER LEAVING ISU HAVE MADE IMPORTANT
  CONTRIBUTIONS TO THE CODE:
     IVANA ADAMOVIC, CHRISTINE AIKENS, YURI ALEXEEV, POOJA ARORA,
     ANDREY ASADCHEV, ROB BELL, PRADIPTA BANDYOPADHYAY, JONATHAN BENTZ,
     BRETT BODE, GALINA CHABAN, WEI CHEN, CHEOL HO CHOI, PAUL DAY,
     ALBERT DEFUSCO, TIM DUDLEY, DMITRI FEDOROV, GRAHAM FLETCHER,
     MARK FREITAG, KURT GLAESEMANN, DAN KEMP, GRANT MERRILL,
     NORIYUKI MINEZAWA, JONATHAN MULLIN, TAKESHI NAGATA,
     SEAN NEDD, HEATHER NETZLOFF, BOSILJKA NJEGIC, RYAN OLSON, MIKE PAK,
     JIM SHOEMAKER, LYUDMILA SLIPCHENKO, SAROM SOK, JIE SONG,
     TETSUYA TAKETSUGU, SIMON WEBB, SOOHAENG YOO, FEDERICO ZAHARIEV

  ADDITIONAL CODE HAS BEEN PROVIDED BY COLLABORATORS IN OTHER GROUPS:
     IOWA STATE UNIVERSITY:
          JOE IVANIC, LAIMUTIS BYTAUTAS, KLAUS RUEDENBERG
     UNIVERSITY OF TOKYO: KIMIHIKO HIRAO, TAKAHITO NAKAJIMA,
          TAKAO TSUNEDA, MUNEAKI KAMIYA, SUSUMU YANAGISAWA,
          KIYOSHI YAGI, MAHITO CHIBA, SEIKEN TOKURA, NAOAKI KAWAKAMI
     UNIVERSITY OF AARHUS: FRANK JENSEN
     UNIVERSITY OF IOWA: VISVALDAS KAIRYS, HUI LI
     NATIONAL INST. OF STANDARDS AND TECHNOLOGY: WALT STEVENS, DAVID GARMER
     UNIVERSITY OF PISA: BENEDETTA MENNUCCI, JACOPO TOMASI
     UNIVERSITY OF MEMPHIS: HENRY KURTZ, PRAKASHAN KORAMBATH
     UNIVERSITY OF ALBERTA: TOBY ZENG, MARIUSZ KLOBUKOWSKI
     UNIVERSITY OF NEW ENGLAND: MARK SPACKMAN
     MIE UNIVERSITY: HIROAKI UMEDA
     MICHIGAN STATE UNIVERSITY:
          KAROL KOWALSKI, MARTA WLOCH, JEFFREY GOUR, JESSE LUTZ,
          WEI LI, PIOTR PIECUCH
     UNIVERSITY OF SILESIA: MONIKA MUSIAL, STANISLAW KUCHARSKI
     FACULTES UNIVERSITAIRES NOTRE-DAME DE LA PAIX:
          OLIVIER QUINET, BENOIT CHAMPAGNE
     UNIVERSITY OF CALIFORNIA - SANTA BARBARA: BERNARD KIRTMAN
     INSTITUTE FOR MOLECULAR SCIENCE:
          KAZUYA ISHIMURA, MICHIO KATOUDA, AND SHIGERU NAGASE
     UNIVERSITY OF NOTRE DAME: DAN CHIPMAN
     KYUSHU UNIVERSITY:
          HARUYUKI NAKANO,
          FENG LONG GU, JACEK KORCHOWIEC, MARCIN MAKOWSKI, AND YURIKO AOKI,
          HIROTOSHI MORI AND EISAKU MIYOSHI
     PENNSYLVANIA STATE UNIVERSITY:
          TZVETELIN IORDANOV, CHET SWALINA, JONATHAN SKONE,
          SHARON HAMMES-SCHIFFER
     WASEDA UNIVERSITY:
          MASATO KOBAYASHI, TOMOKO AKAMA, TSUGUKI TOUMA,
          TAKESHI YOSHIKAWA, YASUHIRO IKABATA, HIROMI NAKAI
     NANJING UNIVERSITY: SHUHUA LI
     UNIVERSITY OF NEBRASKA:
          PEIFENG SU, DEJUN SI, NANDUN THELLAMUREGE, YALI WANG, HUI LI
     UNIVERSITY OF ZURICH:
          ROBERTO PEVERATI, KIM BALDRIDGE
     N. COPERNICUS UNIVERSITY AND JACKSON STATE UNIVERSITY:
          MARIA BARYSZ

 EXECUTION OF GAMESS BEGUN Mon Oct 14 07:29:21 2013

            ECHO OF THE FIRST FEW INPUT CARDS -
 INPUT CARD>! GAMESS/VB2000 Test 14.                                                        
 INPUT CARD>! This run illustrates using Gamess to calculate other properties               
 INPUT CARD>! from the VB wave function.                                                    
 INPUT CARD>!                                                                               
 INPUT CARD>! This run gives the properties from the $ELMOM, $ELFLDG and $ELPOT             
 INPUT CARD>! groups and the electron density at a series of points using                   
 INPUT CARD>! $ELDENS and $POINTS. Note that these are calculated for the Hartree-          
 INPUT CARD>! Fock wavefunction before entering the VB code and for the VB                  
 INPUT CARD>! wavefunction after returning to Gamess.                                       
 INPUT CARD>!                                                                               
 INPUT CARD>! The run is for water with the 6-31G* basis set.                               
 INPUT CARD>!                                                                               
 INPUT CARD>! The very final VB energy is:                                                  
 INPUT CARD>!                                                                               
 INPUT CARD>! ENERGY AND DIFF OF MACROITER    8 =    -76.05312012     -0.00000020           
 INPUT CARD>!                                                                               
 INPUT CARD>! The VB dipole moment is 2.1131.                                               
 INPUT CARD>!                                                                               
 INPUT CARD>! The following properties output should be given after the VB                  
 INPUT CARD>! calculation. Note that different compilers give slightly different            
 INPUT CARD>! values for these properties.                                                  
 INPUT CARD>!                                                                               
 INPUT CARD>!          ---------------------                                                
 INPUT CARD>!          ELECTROSTATIC MOMENTS                                                
 INPUT CARD>!          ---------------------                                                
 INPUT CARD>!                                                                               
 INPUT CARD>! POINT   1           X           Y           Z (BOHR)    CHARGE                
 INPUT CARD>!                 0.000000    0.000000    0.124046        0.00 (A.U.)           
 INPUT CARD>!         DX          DY          DZ         /D/  (DEBYE)                       
 INPUT CARD>!     0.000000    0.000000    2.113137    2.113137                              
 INPUT CARD>!        QXX         QYY         QZZ         QXY         QXZ         QYZ        
 INPUT CARD>!                                                           (BUCKINGHAMS)       
 INPUT CARD>!     2.267002   -2.205864   -0.061138    0.000000    0.000000    0.000000      
 INPUT CARD>!        OXXX        OXXY        OXXZ        OXYY        OYYY        OYYZ       
 INPUT CARD>!     0.000000    0.000000    1.871899    0.000000    0.000000   -0.742686      
 INPUT CARD>!        OXZZ        OYZZ        OZZZ        OXYZ  (X10**34 ESU-CM**3)          
 INPUT CARD>!     0.000000    0.000000   -1.129213    0.000000                              
 INPUT CARD>!                                                                               
 INPUT CARD>!          ----------------                                                     
 INPUT CARD>!          ELECTRON DENSITY                                                     
 INPUT CARD>!          ----------------                                                     
 INPUT CARD>!  POINT      X         Y         Z             DENSITY                         
 INPUT CARD>!                     (BOHR)                    (A.U.)                          
 INPUT CARD>!     1     0.00000   0.00000   0.00000       290.366758                        
 INPUT CARD>!     2    -1.43093   0.00000   1.10839         0.409097                        
 INPUT CARD>!     3     1.43093   0.00000   1.10839         0.409097                        
 INPUT CARD>!     4     0.00000   1.88973   0.00000         0.045098                        
 INPUT CARD>!     5     0.00000  -1.88973   0.00000         0.045098                        
 INPUT CARD>!     6     0.00000   0.00000   1.13384         0.284343                        
 INPUT CARD>!                                                                               
    2000000 WORDS OF MEMORY AVAILABLE

     BASIS OPTIONS
     -------------
     GBASIS=N31          IGAUSS=       6      POLAR=POPN31  
     NDFUNC=       1     NFFUNC=       0     DIFFSP=       F
     NPFUNC=       0      DIFFS=       F     BASNAM=        


     RUN TITLE
     ---------
 Water - 6-31G*                                                                  

 THE POINT GROUP OF THE MOLECULE IS CNV     
 THE ORDER OF THE PRINCIPAL AXIS IS     2

 ATOM      ATOMIC                      COORDINATES (BOHR)
           CHARGE         X                   Y                   Z
 O           8.0     0.0000000000        0.0000000000        0.0000000000
 H           1.0     1.4309295127       -0.0000000000        1.1083914219
 H           1.0    -1.4309295127        0.0000000000        1.1083914219

          INTERNUCLEAR DISTANCES (ANGS.)
          ------------------------------

                1 O          2 H          3 H     

   1 O       0.0000000    0.9578095 *  0.9578095 *
   2 H       0.9578095 *  0.0000000    1.5144307 *
   3 H       0.9578095 *  1.5144307 *  0.0000000  

  * ... LESS THAN  3.000


     ATOMIC BASIS SET
     ----------------
 THE CONTRACTED PRIMITIVE FUNCTIONS HAVE BEEN UNNORMALIZED
 THE CONTRACTED BASIS FUNCTIONS ARE NOW NORMALIZED TO UNITY

  SHELL TYPE  PRIMITIVE        EXPONENT          CONTRACTION COEFFICIENT(S)

 O         

      1   S       1          5484.6716600    0.001831074430
      1   S       2           825.2349460    0.013950172200
      1   S       3           188.0469580    0.068445078098
      1   S       4            52.9645000    0.232714335992
      1   S       5            16.8975704    0.470192897984
      1   S       6             5.7996353    0.358520852987

      2   L       7            15.5396162   -0.110777549525    0.070874268231
      2   L       8             3.5999336   -0.148026262701    0.339752839147
      2   L       9             1.0137618    1.130767015354    0.727158577316

      3   L      10             0.2700058    1.000000000000    1.000000000000

      4   D      11             0.8000000    1.000000000000

 H         

      7   S      12            18.7311370    0.033494604338
      7   S      13             2.8253944    0.234726953484
      7   S      14             0.6401217    0.813757326146

      8   S      15             0.1612778    1.000000000000

 TOTAL NUMBER OF BASIS SET SHELLS             =    8
 NUMBER OF CARTESIAN GAUSSIAN BASIS FUNCTIONS =   19
 NUMBER OF ELECTRONS                          =   10
 CHARGE OF MOLECULE                           =    0
 SPIN MULTIPLICITY                            =    1
 NUMBER OF OCCUPIED ORBITALS (ALPHA)          =    5
 NUMBER OF OCCUPIED ORBITALS (BETA )          =    5
 TOTAL NUMBER OF ATOMS                        =    3
 THE NUCLEAR REPULSION ENERGY IS        9.1892146195

     $CONTRL OPTIONS
     ---------------
 SCFTYP=RHF          RUNTYP=ENERGY       EXETYP=RUN     
 MPLEVL=       0     CITYP =NONE         CCTYP =NONE         VBTYP =VB2000  
 DFTTYP=NONE         TDDFT =NONE    
 MULT  =       1     ICHARG=       0     NZVAR =       0     COORD =UNIQUE  
 PP    =NONE         RELWFN=NONE         LOCAL =NONE         NUMGRD=       F
 ISPHER=      -1     NOSYM =       1     MAXIT =      30     UNITS =ANGS    
 PLTORB=       F     MOLPLT=       F     AIMPAC=       F     FRIEND=        
 NPRINT=       7     IREST =       0     GEOM  =INPUT   
 NORMF =       0     NORMP =       0     ITOL  =      20     ICUT  =       9
 INTTYP=BEST         GRDTYP=BEST         QMTTOL= 1.0E-06

     $SYSTEM OPTIONS
     ---------------
  REPLICATED MEMORY=     2000000 WORDS (ON EVERY NODE).
 DISTRIBUTED MEMDDI=           0 MILLION WORDS IN AGGREGATE,
 MEMDDI DISTRIBUTED OVER   1 PROCESSORS IS           0 WORDS/PROCESSOR.
 TOTAL MEMORY REQUESTED ON EACH PROCESSOR=     2000000 WORDS.
 TIMLIM=          20.00 MINUTES, OR       0.0 DAYS.
 PARALL= F  BALTYP=  DLB     KDIAG=    0  COREFL= F
 MXSEQ2=     300 MXSEQ3=     150

          ----------------
          PROPERTIES INPUT
          ----------------

     MOMENTS            FIELD           POTENTIAL          DENSITY
 IEMOM =       3   IEFLD =       2   IEPOT =       1   IEDEN =       1
 WHERE =COMASS     WHERE =NUCLEI     WHERE =NUCLEI     WHERE =POINTS  
 OUTPUT=BOTH       OUTPUT=BOTH       OUTPUT=BOTH       OUTPUT=BOTH    
 IEMINT=       0   IEFINT=       0                     IEDINT=       0
                                                       MORB  =       0
          EXTRAPOLATION IN EFFECT
          SOSCF IN EFFECT
 ORBITAL PRINTING OPTION: NPREO=     1    19     2     1

     -------------------------------
     INTEGRAL TRANSFORMATION OPTIONS
     -------------------------------
     NWORD  =            0
     CUTOFF = 1.0E-09     MPTRAN =       0
     DIRTRF =       F     AOINTS =DUP     

          ----------------------
          INTEGRAL INPUT OPTIONS
          ----------------------
 NOPK  =       1 NORDER=       0 SCHWRZ=       F

     ------------------------------------------
     THE POINT GROUP IS C1 , NAXIS= 1, ORDER= 1
     ------------------------------------------

     DIMENSIONS OF THE SYMMETRY SUBSPACES ARE
 A   =   19

 ..... DONE SETTING UP THE RUN .....
 STEP CPU TIME =     0.00 TOTAL CPU TIME =        0.0 (    0.0 MIN)
 TOTAL WALL CLOCK TIME=        0.0 SECONDS, CPU UTILIZATION IS   0.00%

          ********************
          1 ELECTRON INTEGRALS
          ********************
 ...... END OF ONE-ELECTRON INTEGRALS ......
 STEP CPU TIME =     0.00 TOTAL CPU TIME =        0.0 (    0.0 MIN)
 TOTAL WALL CLOCK TIME=        0.0 SECONDS, CPU UTILIZATION IS   0.00%

          -------------
          GUESS OPTIONS
          -------------
          GUESS =HUCKEL            NORB  =       0          NORDER=       0
          MIX   =       F          PRTMO =       F          PUNMO =       F
          TOLZ  = 1.0E-08          TOLE  = 1.0E-05
          SYMDEN=       F          PURIFY=       F

 INITIAL GUESS ORBITALS GENERATED BY HUCKEL   ROUTINE.
 HUCKEL GUESS REQUIRES      5005 WORDS.

 SYMMETRIES FOR INITIAL GUESS ORBITALS FOLLOW.   BOTH SET(S).
     5 ORBITALS ARE OCCUPIED (    1 CORE ORBITALS).
     2=A        3=A        4=A        5=A        6=A        7=A        8=A   
     9=A       10=A       11=A       12=A       13=A       14=A       15=A   
 ...... END OF INITIAL ORBITAL SELECTION ......
 STEP CPU TIME =     0.01 TOTAL CPU TIME =        0.0 (    0.0 MIN)
 TOTAL WALL CLOCK TIME=        0.0 SECONDS, CPU UTILIZATION IS  50.00%

                    ----------------------
                    AO INTEGRAL TECHNOLOGY
                    ----------------------
     S,P,L SHELL ROTATED AXIS INTEGRALS, REPROGRAMMED BY
        KAZUYA ISHIMURA (IMS) AND JOSE SIERRA (SYNSTAR).
     S,P,D,L SHELL ROTATED AXIS INTEGRALS PROGRAMMED BY
        KAZUYA ISHIMURA (INSTITUTE FOR MOLECULAR SCIENCE).
     S,P,D,F,G SHELL TO TOTAL QUARTET ANGULAR MOMENTUM SUM 5,
        ERIC PROGRAM BY GRAHAM FLETCHER (ELORET AND NASA ADVANCED
        SUPERCOMPUTING DIVISION, AMES RESEARCH CENTER).
     S,P,D,F,G,L SHELL GENERAL RYS QUADRATURE PROGRAMMED BY
        MICHEL DUPUIS (PACIFIC NORTHWEST NATIONAL LABORATORY).

          --------------------
          2 ELECTRON INTEGRALS
          --------------------

 THE -PK- OPTION IS OFF, THE INTEGRALS ARE NOT IN SUPERMATRIX FORM.
 STORING   15000 INTEGRALS/RECORD ON DISK, USING 12 BYTES/INTEGRAL.
 TWO ELECTRON INTEGRAL EVALUATION REQUIRES   90432 WORDS OF MEMORY.
 II,JST,KST,LST =  1  1  1  1 NREC =         1 INTLOC =    1
 II,JST,KST,LST =  2  1  1  1 NREC =         1 INTLOC =    2
 II,JST,KST,LST =  3  1  1  1 NREC =         1 INTLOC =   34
 II,JST,KST,LST =  4  1  1  1 NREC =         1 INTLOC =  214
 II,JST,KST,LST =  5  1  1  1 NREC =         1 INTLOC = 1189
 II,JST,KST,LST =  6  1  1  1 NREC =         1 INTLOC = 2365
 II,JST,KST,LST =  7  1  1  1 NREC =         1 INTLOC = 3802
 II,JST,KST,LST =  8  1  1  1 NREC =         1 INTLOC = 5512
 TOTAL NUMBER OF NONZERO TWO-ELECTRON INTEGRALS =                7563
          1 INTEGRAL RECORDS WERE STORED ON DISK FILE  8.
  ...... END OF TWO-ELECTRON INTEGRALS .....
 STEP CPU TIME =     0.02 TOTAL CPU TIME =        0.0 (    0.0 MIN)
 TOTAL WALL CLOCK TIME=        0.0 SECONDS, CPU UTILIZATION IS 100.00%

          --------------------------
                 RHF SCF CALCULATION
          --------------------------

     NUCLEAR ENERGY =         9.1892146195
     MAXIT =   30     NPUNCH=    2
     EXTRAP=T  DAMP=F  SHIFT=F  RSTRCT=F  DIIS=F  DEM=F  SOSCF=T
     DENSITY MATRIX CONV=  1.00E-05
     SOSCF WILL OPTIMIZE      70 ORBITAL ROTATIONS, SOGTOL=   0.250
     MEMORY REQUIRED FOR RHF ITERS=     33073 WORDS.

 ITER EX DEM     TOTAL ENERGY        E CHANGE  DENSITY CHANGE     ORB. GRAD
   1  0  0      -75.7621015773   -75.7621015773   0.250259483   0.000000000
          ---------------START SECOND ORDER SCF---------------
   2  1  0      -75.9979513685    -0.2358497912   0.079845627   0.048804125
   3  2  0      -76.0094108733    -0.0114595047   0.030372787   0.012449952
   4  3  0      -76.0104785260    -0.0010676527   0.003093192   0.001660626
   5  4  0      -76.0104992574    -0.0000207315   0.002076522   0.000749455
   6  5  0      -76.0105032467    -0.0000039892   0.000394280   0.000300532
   7  6  0      -76.0105034842    -0.0000002375   0.000061788   0.000055241
   8  7  0      -76.0105034904    -0.0000000062   0.000022296   0.000012199
   9  8  0      -76.0105034909    -0.0000000005   0.000004850   0.000001664
  10  9  0      -76.0105034909    -0.0000000000   0.000000411   0.000000304

          -----------------
          DENSITY CONVERGED
          -----------------
     TIME TO FORM FOCK OPERATORS=       0.0 SECONDS (       0.0 SEC/ITER)
     TIME TO SOLVE SCF EQUATIONS=       0.0 SECONDS (       0.0 SEC/ITER)

 FINAL RHF ENERGY IS      -76.0105034909 AFTER  10 ITERATIONS

          ------------
          EIGENVECTORS
          ------------

                      1          2          3          4          5
                  -20.5605    -1.3415    -0.7065    -0.5710    -0.4979
                     A          A          A          A          A   
    1  O  1  S    0.994638  -0.209696   0.000000   0.073350   0.000000
    2  O  1  S    0.021139   0.475881   0.000000  -0.164593   0.000000
    3  O  1  X    0.000000   0.000000   0.507519  -0.000000   0.000000
    4  O  1  Y    0.000000   0.000000   0.000000  -0.000000   0.639640
    5  O  1  Z    0.001336   0.093064   0.000000   0.555304   0.000000
    6  O  1  S    0.004084   0.439559   0.000000  -0.325429   0.000000
    7  O  1  X    0.000000   0.000000   0.306673  -0.000000   0.000000
    8  O  1  Y    0.000000   0.000000   0.000000  -0.000000   0.511445
    9  O  1  Z   -0.000473   0.050784   0.000000   0.403128   0.000000
   10  O  1 XX   -0.004195   0.026323   0.000000  -0.000199   0.000000
   11  O  1 YY   -0.003912  -0.001235   0.000000  -0.011842   0.000000
   12  O  1 ZZ   -0.004071   0.021412   0.000000   0.046350   0.000000
   13  O  1 XY    0.000000   0.000000   0.000000  -0.000000   0.000000
   14  O  1 XZ    0.000000   0.000000   0.051159  -0.000000   0.000000
   15  O  1 YZ    0.000000   0.000000   0.000000  -0.000000   0.033901
   16  H  2  S    0.000332   0.130900   0.230873   0.141438   0.000000
   17  H  2  S   -0.000195   0.002006   0.111040   0.085730   0.000000
   18  H  3  S    0.000332   0.130900  -0.230873   0.141438   0.000000
   19  H  3  S   -0.000195   0.002006  -0.111040   0.085730   0.000000

                      6          7          8          9         10
                    0.2106     0.3040     1.0222     1.1316     1.1678
                     A          A          A          A          A   
    1  O  1  S   -0.100648   0.000000  -0.000000   0.003826   0.000000
    2  O  1  S    0.056978   0.000000  -0.000000  -0.922444   0.000000
    3  O  1  X    0.000000  -0.329557   0.096341   0.000000   0.000000
    4  O  1  Y    0.000000   0.000000  -0.000000   0.000000  -0.962729
    5  O  1  Z    0.217438   0.000000  -0.000000   0.411466   0.000000
    6  O  1  S    1.413568   0.000000  -0.000000   1.636875   0.000000
    7  O  1  X    0.000000  -0.833327   0.658939   0.000000   0.000000
    8  O  1  Y    0.000000   0.000000  -0.000000   0.000000   1.036061
    9  O  1  Z    0.508492   0.000000  -0.000000  -0.703271   0.000000
   10  O  1 XX   -0.056036   0.000000  -0.000000  -0.182501   0.000000
   11  O  1 YY   -0.071575   0.000000  -0.000000  -0.388325   0.000000
   12  O  1 ZZ   -0.043217   0.000000  -0.000000  -0.317499   0.000000
   13  O  1 XY    0.000000   0.000000  -0.000000   0.000000   0.000000
   14  O  1 XZ    0.000000  -0.022477  -0.198158   0.000000   0.000000
   15  O  1 YZ    0.000000   0.000000  -0.000000   0.000000   0.014496
   16  H  2  S   -0.055341   0.050207  -0.838924   0.554507   0.000000
   17  H  2  S   -1.040630   1.393308   0.462152  -0.478607   0.000000
   18  H  3  S   -0.055341  -0.050207   0.838924   0.554507   0.000000
   19  H  3  S   -1.040630  -1.393308  -0.462152  -0.478607   0.000000

                     11         12         13         14         15
                    1.1712     1.3806     1.4342     2.0202     2.0339
                     A          A          A          A          A   
    1  O  1  S   -0.049662  -0.000000  -0.085857   0.007218   0.000000
    2  O  1  S   -0.106444  -0.000000  -1.416817   0.077505   0.000000
    3  O  1  X   -0.000000  -1.037146  -0.000000  -0.000000   0.000000
    4  O  1  Y   -0.000000  -0.000000  -0.000000  -0.000000   0.000000
    5  O  1  Z    0.764813  -0.000000  -0.507018   0.004880   0.000000
    6  O  1  S    0.477162  -0.000000   3.569531  -0.226811   0.000000
    7  O  1  X   -0.000000   1.537012  -0.000000  -0.000000   0.000000
    8  O  1  Y   -0.000000  -0.000000  -0.000000  -0.000000   0.000000
    9  O  1  Z   -0.377601  -0.000000   1.175253  -0.129406   0.000000
   10  O  1 XX   -0.250649  -0.000000  -0.644391  -0.581231   0.000000
   11  O  1 YY    0.054150  -0.000000  -0.276185  -0.366109   0.000000
   12  O  1 ZZ   -0.088179  -0.000000  -0.402191   1.008717   0.000000
   13  O  1 XY   -0.000000  -0.000000  -0.000000  -0.000000   1.000000
   14  O  1 XZ   -0.000000   0.018214  -0.000000  -0.000000   0.000000
   15  O  1 YZ   -0.000000  -0.000000  -0.000000  -0.000000   0.000000
   16  H  2  S   -0.655917   0.097687  -0.324040   0.077090   0.000000
   17  H  2  S    0.353620  -0.913314  -0.783052   0.036314   0.000000
   18  H  3  S   -0.655917  -0.097687  -0.324040   0.077090   0.000000
   19  H  3  S    0.353620   0.913314  -0.783052   0.036314   0.000000

                     16         17         18         19
                    2.0679     2.6215     2.9462     3.9702
                     A          A          A          A   
    1  O  1  S   -0.000000  -0.057445  -0.000000  -0.465760
    2  O  1  S   -0.000000  -0.489026  -0.000000   0.326969
    3  O  1  X   -0.000000  -0.000000  -0.018350   0.000000
    4  O  1  Y   -0.007734  -0.000000  -0.000000   0.000000
    5  O  1  Z   -0.000000  -0.047837  -0.000000  -0.116151
    6  O  1  S   -0.000000   1.567662  -0.000000   3.621878
    7  O  1  X   -0.000000  -0.000000   0.864304   0.000000
    8  O  1  Y   -0.032379  -0.000000  -0.000000   0.000000
    9  O  1  Z   -0.000000   0.739642  -0.000000   0.317989
   10  O  1 XX   -0.000000   0.751459  -0.000000  -1.526148
   11  O  1 YY   -0.000000  -1.134458  -0.000000  -1.561075
   12  O  1 ZZ   -0.000000   0.039890  -0.000000  -1.543121
   13  O  1 XY   -0.000000  -0.000000  -0.000000   0.000000
   14  O  1 XZ   -0.000000  -0.000000   1.283761   0.000000
   15  O  1 YZ    0.999320  -0.000000  -0.000000   0.000000
   16  H  2  S   -0.000000  -0.840635  -0.951936   0.128373
   17  H  2  S   -0.000000  -0.141688   0.038574  -0.545227
   18  H  3  S   -0.000000  -0.840635   0.951936   0.128373
   19  H  3  S   -0.000000  -0.141688  -0.038574  -0.545227
 ...... END OF RHF CALCULATION ......
 STEP CPU TIME =     0.00 TOTAL CPU TIME =        0.0 (    0.0 MIN)
 TOTAL WALL CLOCK TIME=        0.0 SECONDS, CPU UTILIZATION IS 100.00%

     ----------------------------------------------------------------
     PROPERTY VALUES FOR THE RHF   SELF-CONSISTENT FIELD WAVEFUNCTION
     ----------------------------------------------------------------

          -----------------
          ENERGY COMPONENTS
          -----------------

         WAVEFUNCTION NORMALIZATION =       1.0000000000

                ONE ELECTRON ENERGY =    -123.0445551908
                TWO ELECTRON ENERGY =      37.8448370804
           NUCLEAR REPULSION ENERGY =       9.1892146195
                                      ------------------
                       TOTAL ENERGY =     -76.0105034909

 ELECTRON-ELECTRON POTENTIAL ENERGY =      37.8448370804
  NUCLEUS-ELECTRON POTENTIAL ENERGY =    -198.8637403093
   NUCLEUS-NUCLEUS POTENTIAL ENERGY =       9.1892146195
                                      ------------------
             TOTAL POTENTIAL ENERGY =    -151.8296886094
               TOTAL KINETIC ENERGY =      75.8191851185
                 VIRIAL RATIO (V/T) =       2.0025233504

  ...... PI ENERGY ANALYSIS ......

 ENERGY ANALYSIS:
            FOCK ENERGY=    -47.3548777081
          BARE H ENERGY=   -123.0445551908
     ELECTRONIC ENERGY =    -85.1997164495
         KINETIC ENERGY=     75.8191851185
          N-N REPULSION=      9.1892146195
           TOTAL ENERGY=    -76.0105018299
        SIGMA PART(1+2)=    -77.6052828296
               (K,V1,2)=     71.2642911179   -180.1157402333     31.2461662857
           PI PART(1+2)=     -7.5944336198
               (K,V1,2)=      4.5548940005    -18.7480000760      6.5986724556
  SIGMA SKELETON, ERROR=    -68.4160682101      0.0000000000
             MIXED PART= 0.00000E+00 0.00000E+00 0.00000E+00 0.00000E+00
 ...... END OF PI ENERGY ANALYSIS ......

          ---------------------------------------
          MULLIKEN AND LOWDIN POPULATION ANALYSES
          ---------------------------------------

     ATOMIC MULLIKEN POPULATION IN EACH MOLECULAR ORBITAL

                      1          2          3          4          5

                  2.000000   2.000000   2.000000   2.000000   2.000000

    1             2.000007   1.738259   1.352887   1.775068   2.000000
    2            -0.000003   0.130870   0.323556   0.112466   0.000000
    3            -0.000003   0.130870   0.323556   0.112466   0.000000

               ----- POPULATIONS IN EACH AO -----
                             MULLIKEN      LOWDIN
              1  O  1  S      1.99532     1.97770
              2  O  1  S      0.90352     0.71419
              3  O  1  X      0.80416     0.74508
              4  O  1  Y      1.14641     1.12651
              5  O  1  Z      0.94454     0.90047
              6  O  1  S      0.92089     0.48249
              7  O  1  X      0.52673     0.58791
              8  O  1  Y      0.85129     0.87119
              9  O  1  Z      0.69135     0.74057
             10  O  1 XX      0.03670     0.20348
             11  O  1 YY      0.00278     0.16871
             12  O  1 ZZ      0.01824     0.18008
             13  O  1 XY      0.00000     0.00000
             14  O  1 XZ      0.02200     0.02772
             15  O  1 YZ      0.00230     0.00230
             16  H  2  S      0.46327     0.42986
             17  H  2  S      0.10362     0.20594
             18  H  3  S      0.46327     0.42986
             19  H  3  S      0.10362     0.20594

          ----- MULLIKEN ATOMIC OVERLAP POPULATIONS -----
          (OFF-DIAGONAL ELEMENTS NEED TO BE MULTIPLIED BY 2)

             1           2           3

    1    8.3357543
    2    0.2652334   0.3203758
    3    0.2652334  -0.0187198   0.3203758

          TOTAL MULLIKEN AND LOWDIN ATOMIC POPULATIONS
       ATOM         MULL.POP.    CHARGE          LOW.POP.     CHARGE
    1 O             8.866221   -0.866221         8.728398   -0.728398
    2 H             0.566889    0.433111         0.635801    0.364199
    3 H             0.566889    0.433111         0.635801    0.364199

          -------------------------------
          BOND ORDER AND VALENCE ANALYSIS     BOND ORDER THRESHOLD=0.050
          -------------------------------

                   BOND                       BOND                       BOND
  ATOM PAIR DIST  ORDER      ATOM PAIR DIST  ORDER      ATOM PAIR DIST  ORDER
    1   2  0.958  0.786        1   3  0.958  0.786

                       TOTAL       BONDED        FREE
      ATOM            VALENCE     VALENCE     VALENCE
    1 O                 1.573       1.573      -0.000
    2 H                 0.782       0.782       0.000
    3 H                 0.782       0.782      -0.000

          ---------------------
          ELECTROSTATIC MOMENTS
          ---------------------

 POINT   1           X           Y           Z (BOHR)    CHARGE
                 0.000000   -0.000000    0.124046        0.00 (A.U.)
         DX          DY          DZ         /D/  (DEBYE)
     0.000000    0.000000    2.226111    2.226111
        QXX         QYY         QZZ         QXY         QXZ         QYZ  (BUCKINGHAMS)
     2.356030   -2.288195   -0.067835   -0.000000    0.000000   -0.000000
        OXXX        OXXY        OXXZ        OXYY        OYYY        OYYZ
     0.000000   -0.000000    2.063530   -0.000000    0.000000   -0.831256
        OXZZ        OYZZ        OZZZ        OXYZ  (X10**34 ESU-CM**3)
    -0.000000   -0.000000   -1.232273   -0.000000

          ----------------
          ELECTRON DENSITY
          ----------------
  POINT      X         Y         Z             DENSITY
                     (BOHR)                    (A.U.)
     1     0.00000   0.00000   0.00000       290.319753
     2    -1.43093   0.00000   1.10839         0.389791
     3     1.43093   0.00000   1.10839         0.389791
     4     0.00000   1.88973   0.00000         0.045091
     5     0.00000  -1.88973   0.00000         0.045091
     6     0.00000   0.00000   1.13384         0.288754

          -----------------------
          ELECTROSTATIC POTENTIAL
          -----------------------

  THE CONTRIBUTION FROM EACH NUCLEUS AT ITS OWN POSITION IS NEGLECTED

   POINT      X          Y          Z           ELECTRONIC      NUCLEAR         TOTAL
                       (BOHR)                                    (A.U.)
      1    0.00000    0.00000    0.00000       -23.416612       1.104974     -22.311638
      2    1.43093   -0.00000    1.10839        -5.765422       4.769319      -0.996103
      3   -1.43093    0.00000    1.10839        -5.765422       4.769319      -0.996103

          -----------------------
          ELECTRIC FIELD/GRADIENT 
          -----------------------

  THE CONTRIBUTION FROM EACH NUCLEUS AT ITS OWN POSITION IS NEGLECTED

 POINT     1             X               Y               Z       (BOHR)
                     0.000000        0.000000        0.000000
            EFX             EFY             EFZ            /EF/       (A.U.)
        -0.000000        0.000000       -0.130980        0.130980
           EFGXX           EFGYY           EFGZZ           EFGXY           EFGXZ           EFGYZ
        -1.670505        1.914514       -0.244009        0.000000       -0.000000        0.000000

 POINT     2             X               Y               Z       (BOHR)
                     1.430930       -0.000000        1.108391
            EFX             EFY             EFZ            /EF/       (A.U.)
         0.040429        0.000000        0.021941        0.046000
           EFGXX           EFGYY           EFGZZ           EFGXY           EFGXZ           EFGYZ
        -0.232621        0.281045       -0.048424        0.000000       -0.342046        0.000000

 POINT     3             X               Y               Z       (BOHR)
                    -1.430930        0.000000        1.108391
            EFX             EFY             EFZ            /EF/       (A.U.)
        -0.040429        0.000000        0.021941        0.046000
           EFGXX           EFGYY           EFGZZ           EFGXY           EFGXZ           EFGYZ
        -0.232621        0.281045       -0.048424        0.000000        0.342046        0.000000
 ...... END OF PROPERTY EVALUATION ......
 STEP CPU TIME =     0.00 TOTAL CPU TIME =        0.0 (    0.0 MIN)
 TOTAL WALL CLOCK TIME=        0.0 SECONDS, CPU UTILIZATION IS 100.00%

 **************************************************************
 *                                                            *
 *         ENTERING VB2000 INTERFACED INTO GAMESS(US)         *
 *                                                            *
 **************************************************************

 **************************************************************
 *                                                            *
 *                        V B 2 0 0 0                         *
 *                                                            *
 *       An ab initio Valence-Bond Program Based on the       *
 *           Generalized Product Function Method and          *
 *                   the Algebrant Algorithm                  *
 *                                                            *
 *                   Version 2.7 October 2013                 *
 *                      GAMESS(US) Version                    *
 *                     Compiler: gfortran                     *
 *                                                            *
 *         Jiabo Li*, Brian Duke** and Roy McWeeny***         *
 *                                                            *
 *        * SciNet Technologies, 9943 Fieldthorn St.,         *
 *                   San Diego, CA 92127, USA                 *
 *                                                            *
 *  ** Monash University Institute of Pharmaceutical Sciences,*
 *     381 Royal Pde, Parkville, Victoria, 3052, Australia    *
 *                                                            *
 * *** Department of Chemistry, University of Pisa,           *
 *     56100 Pisa, Italy                                      *
 *                                                            *
 *  Reference for the software:                               *
 *     Jiabo Li, Brian Duke, and Roy McWeeny, VB2000 Version  *
 *     2.7, SciNet Technologies, San Diego, CA, 2013          *
 *     URL: http://www.scinetec.com or http://www.vb2000.net  *
 *                                                            *
 *  References for the theory:                                *
 *     General:                                               *
 *     Jiabo Li, and Roy McWeeny, "VB2000: Pushing Valence    *
 *     Bond Theory to New Limits", Int. J. Quantum Chem.,     *
 *     89(2002)208-216.                                       *
 *                                                            *
 *     Spin densities:-                                       *
 *     Jiabo Li, Brian J. Duke, Thomas M. Klapoetke, and Roy  *
 *     McWeeny, Spin-Density of Spin-Free Valence Bond Wave   *
 *     Functions and Its Implementation in VB2000. J. Theor.  *
 *     Comp. Chem. 7(2008)853-867.                            *
 *                                                            *
 *     Spin coupled - n electrons in m orbitals:-             *
 *     Peter B. Karadakov, David L. Cooper, Brian J. Duke,    *
 *     and Jiabo Li, Spin-Coupled Theory for N Electrons in   *
 *     M Orbitals Active Spaces,  J. Phys. Chem. A, 116,      *
 *     7238 - 7244, 2012                                      *
 *                                                            *
 *  Copyright (C) 2000-2013 by SciNet Technologies            *
 **************************************************************

 JOB NAME IS exam-vb14                                                       

 VB2000 DIRECTORY IS: /home/brian/qchem/gamess/vb2000                                                 
 MAXIMUM MEMORY USE IS:     6500000
 THIS IS TAKEN AS THE MAXIMUM OF THE UNUSED MEMORY REQUESTED
 IN GAMESS $SYSTEM BLOCK AND MEMORY REQUESTED IN VB2000 DATA

 Input of molecule
 =================
 #! VB(4)/6-31G* PRINTALL                                                        
                                                                                 
 Title: Water                                                                           

 Charge =  0 Multiplicity =  1

 ATOM      ATOMIC                      COORDINATES (ANGS)
           CHARGE         X                   Y                   Z
 O           8.0     0.0000000000        0.0000000000        0.0000000000
 H           1.0     0.7572153431       -0.0000000000        0.5865355234
 H           1.0    -0.7572153431        0.0000000000        0.5865355234

 Hartree-Fock Energy from Gamess run =     -76.010503490895

 Basis set size =   19

                    PARAMETER LIMIT VALUES
 Max. no. of atoms                    MAXCEN =   200
 Max. no. of basis functions          MAXBFN =   726
 Max. no. of shells                   MAXSHL =   500
 Max. no. of total primitives         MAXEXP =  1000
 Max. no. of primitives per orbital   MAXPRM =    15
 Max. no. of atoms * no. of orbitals  MAXNAB = 72600
 Increase max basis set size by       NEXTRA =    20
 Max. size for Rumer data             MAXST1 = 33334
 Max. no. of orbitals in group        MAXNOB =   200
 Max. no. of CUBE orbitals            MAXCUB =   100
 Max. no. of groups                   MAXGRP =    99

 BASIS IN $BASIS IS N31      WITH IGAUSS = 6
 NDFUNC = 1 NFFUNC = 0 NPFUNC = 0

 VBO LIB IS: /home/brian/qchem/gamess/vb2000/VBOLIB/VBOLIB6-31G                              
 MODIFYING VBOLIB FOR GAMESS

 Molecular orbitals by HF method
 ===============================================================================
 MO#                       1         2         3         4         5         6
 E(a.u.)             -20.561    -1.342    -0.707    -0.571    -0.498     0.211
 -------------------------------------------------------------------------------

   1  1  O     s     0.99464  -0.20970   0.00000  -0.07335   0.00000  -0.10065
   2  1  O     s     0.02114   0.47588   0.00000   0.16459   0.00000   0.05698
   3  1  O     x     0.00000   0.00000   0.50752   0.00000   0.00000   0.00000
   4  1  O     y     0.00000   0.00000   0.00000   0.00000   0.63964   0.00000
   5  1  O     z     0.00134   0.09306   0.00000  -0.55530   0.00000   0.21744
   6  1  O     s     0.00408   0.43956   0.00000   0.32543   0.00000   1.41357
   7  1  O     x     0.00000   0.00000   0.30667   0.00000   0.00000   0.00000
   8  1  O     y     0.00000   0.00000   0.00000   0.00000   0.51144   0.00000
   9  1  O     z    -0.00047   0.05078   0.00000  -0.40313   0.00000   0.50849
  10  1  O    xx    -0.00419   0.02632   0.00000   0.00020   0.00000  -0.05604
  11  1  O    yy    -0.00391  -0.00123   0.00000   0.01184   0.00000  -0.07157
  12  1  O    zz    -0.00407   0.02141   0.00000  -0.04635   0.00000  -0.04322
  13  1  O    xy     0.00000   0.00000   0.00000   0.00000   0.00000   0.00000
  14  1  O    xz     0.00000   0.00000   0.05116   0.00000   0.00000   0.00000
  15  1  O    yz     0.00000   0.00000   0.00000   0.00000   0.03390   0.00000
  16  2  H     s     0.00033   0.13090   0.23087  -0.14144   0.00000  -0.05534
  17  2  H     s    -0.00019   0.00201   0.11104  -0.08573   0.00000  -1.04063
  18  3  H     s     0.00033   0.13090  -0.23087  -0.14144   0.00000  -0.05534
  19  3  H     s    -0.00019   0.00201  -0.11104  -0.08573   0.00000  -1.04063

 MO#                       7         8         9        10
 E(a.u.)               0.304     1.022     1.132     1.168
 -------------------------------------------------------------------------------

   1  1  O     s     0.00000   0.00000   0.00383   0.00000
   2  1  O     s     0.00000   0.00000  -0.92244   0.00000
   3  1  O     x    -0.32956  -0.09634   0.00000   0.00000
   4  1  O     y     0.00000   0.00000   0.00000  -0.96273
   5  1  O     z     0.00000   0.00000   0.41147   0.00000
   6  1  O     s     0.00000   0.00000   1.63687   0.00000
   7  1  O     x    -0.83333  -0.65894   0.00000   0.00000
   8  1  O     y     0.00000   0.00000   0.00000   1.03606
   9  1  O     z     0.00000   0.00000  -0.70327   0.00000
  10  1  O    xx     0.00000   0.00000  -0.18250   0.00000
  11  1  O    yy     0.00000   0.00000  -0.38833   0.00000
  12  1  O    zz     0.00000   0.00000  -0.31750   0.00000
  13  1  O    xy     0.00000   0.00000   0.00000   0.00000
  14  1  O    xz    -0.02248   0.19816   0.00000   0.00000
  15  1  O    yz     0.00000   0.00000   0.00000   0.01450
  16  2  H     s     0.05021   0.83892   0.55451   0.00000
  17  2  H     s     1.39331  -0.46215  -0.47861   0.00000
  18  3  H     s    -0.05021  -0.83892   0.55451   0.00000
  19  3  H     s    -1.39331   0.46215  -0.47861   0.00000


 Localized molecular orbitals and the bond labels
 ===============================================================================
 LMO#                      1         2         3         4         5
 E(a.u.)             -20.249    -1.188    -0.498    -0.871    -0.871
 Bond Label            1:(0)     1:(1)     1:(2)    3-1(1)    2-1(1)
 -------------------------------------------------------------------------------

   1  1  O     s     1.01448  -0.07475  -0.00001   0.04415  -0.04415
   2  1  O     s    -0.04217   0.43867  -0.00001  -0.17290   0.17290
   3  1  O     x     0.00000   0.00000  -0.00000   0.35887   0.35887
   4  1  O     y     0.00001   0.00001   0.63964  -0.00000   0.00000
   5  1  O     z     0.02350  -0.35039   0.00000  -0.31121   0.31121
   6  1  O     s    -0.06446   0.53200  -0.00001  -0.07732   0.07732
   7  1  O     x     0.00000   0.00000  -0.00000   0.21685   0.21685
   8  1  O     y     0.00000   0.00001   0.51144  -0.00000   0.00000
   9  1  O     z     0.01751  -0.26561   0.00000  -0.21707   0.21707
  10  1  O    xx    -0.00713   0.01702  -0.00000  -0.01360   0.01360
  11  1  O    yy    -0.00444   0.00751  -0.00000   0.00637  -0.00637
  12  1  O    zz    -0.00372  -0.02074   0.00000  -0.03301   0.03301
  13  1  O    xy     0.00000   0.00000   0.00000   0.00000   0.00000
  14  1  O    xz     0.00000   0.00000  -0.00000   0.03617   0.03617
  15  1  O    yz     0.00000   0.00000   0.03390  -0.00000   0.00000
  16  2  H     s    -0.00607  -0.01850  -0.00000   0.02768   0.29883
  17  2  H     s     0.00462  -0.06230   0.00000   0.03698   0.12006
  18  3  H     s    -0.00607  -0.01850   0.00000  -0.29883  -0.02768
  19  3  H     s     0.00462  -0.06230   0.00000  -0.12006  -0.03698


 Mulliken population of localized molecular orbitals
 ===============================================================================
 LMO#                      1         2         3         4         5
 E(a.u.)             -20.249    -1.188    -0.498    -0.871    -0.871
 Bond Label            1:(0)     1:(1)     1:(2)    3-1(1)    2-1(1)
 -------------------------------------------------------------------------------

   1         O       1.99979   2.08410   2.00000   1.39117   1.39117
   2         H       0.00010  -0.04205  -0.00000  -0.01381   0.62264
   3         H       0.00010  -0.04205  -0.00000   0.62264  -0.01381


 PARTITIONING OF LMOs INTO GROUPS ($LMOGRP)
 =======================================================================
 LMO#     1  2  3  4  5
 Group#   1  1  1  2  2
 Split    0  0  0  1  1




 Initial guess of orbitals
 ===============================================================================
 ORBITAL#                  1         2         3         4         5         6
 Bond Label            1:(0)     1:(1)     1:(2)    3-1(1)    3-1(1)    2-1(1)
 -------------------------------------------------------------------------------

   1  1  O     s     1.01448  -0.07475  -0.00001   0.06444  -0.00884  -0.06444
   2  1  O     s    -0.04217   0.43867  -0.00001  -0.26964   0.07782   0.26964
   3  1  O     x     0.00000   0.00000  -0.00000   0.49258   0.00000   0.49258
   4  1  O     y     0.00001   0.00001   0.63964  -0.00000  -0.00000   0.00000
   5  1  O     z     0.02350  -0.35039   0.00000  -0.40132  -0.06221   0.40132
   6  1  O     s    -0.06446   0.53200  -0.00001  -0.14530   0.09432   0.14530
   7  1  O     x     0.00000   0.00000  -0.00000   0.29764   0.00000   0.29764
   8  1  O     y     0.00000   0.00001   0.51144  -0.00000  -0.00000   0.00000
   9  1  O     z     0.01751  -0.26561   0.00000  -0.27835  -0.04716   0.27835
  10  1  O    xx    -0.00713   0.01702  -0.00000  -0.01991   0.00300   0.01991
  11  1  O    yy    -0.00444   0.00751  -0.00000   0.00819   0.00132  -0.00819
  12  1  O    zz    -0.00372  -0.02074   0.00000  -0.04377  -0.00370   0.04377
  13  1  O    xy     0.00000   0.00000   0.00000   0.00000   0.00000   0.00000
  14  1  O    xz     0.00000   0.00000  -0.00000   0.04965   0.00000   0.04965
  15  1  O    yz     0.00000   0.00000   0.03390  -0.00000  -0.00000   0.00000
  16  2  H     s    -0.00607  -0.01850  -0.00000   0.00138  -0.00332  -0.00138
  17  2  H     s     0.00462  -0.06230   0.00000   0.00459  -0.01106  -0.00459
  18  3  H     s    -0.00607  -0.01850   0.00000   0.00138  -0.78454  -0.00138
  19  3  H     s     0.00462  -0.06230   0.00000   0.00459  -0.32492  -0.00459

 ORBITAL#                  7
 Bond Label           2-1(1)
 -------------------------------------------------------------------------------

   1  1  O     s     0.00884
   2  1  O     s    -0.07782
   3  1  O     x    -0.00000
   4  1  O     y     0.00000
   5  1  O     z     0.06221
   6  1  O     s    -0.09432
   7  1  O     x    -0.00000
   8  1  O     y     0.00000
   9  1  O     z     0.04716
  10  1  O    xx    -0.00300
  11  1  O    yy    -0.00132
  12  1  O    zz     0.00370
  13  1  O    xy     0.00000
  14  1  O    xz    -0.00000
  15  1  O    yz     0.00000
  16  2  H     s     0.78454
  17  2  H     s     0.32492
  18  3  H     s     0.00332
  19  3  H     s     0.01106


      GENERAL CONTROLS ($GENCTL)
 ====================================
 Number of electron groups       =    2
 Maximum macro-iterations        =   12
 Energy threshold           = 10**(- 6)
 Restart calculation(0/1/2)      =    0
 Group#                     1  2
 Num. of electrons          6  4
 Num. of spins              0  0
 Num. of orbitals           3  4
 Method#                    1  2

 SYMBOLIC VB STRUCTURE(S) OF GROUP  2
 STR. NO.       RUMER PATTERN  
    1           1  2   3  4


 MAP FILE IS: /home/brian/qchem/gamess/vb2000/MAP/MAP0400t                                    

 VB-ORBITAL OPTIMIZATION OF GROUP  2 ...
 GROUP =  2  ITER =  1 CMAX =  0.15000000000000
 GROUP =  2  ITER =  2 CMAX =  0.15383187170359
 GROUP =  2  ITER =  3 CMAX =  0.10669086995318
 GROUP =  2  ITER =  4 CMAX =  0.05462598819027
 GROUP =  2  ITER =  5 CMAX =  0.01915671655965
 GROUP =  2  ITER =  6 CMAX =  0.00669287238607
 GROUP =  2  ITER =  7 CMAX =  0.00244542054180
 GROUP =  2  ITER =  8 CMAX =  0.00089120392242

 ENERGY AND DIFF OF MACROITER    1 =    -76.04623083    -76.04623083

 VB-ORBITAL OPTIMIZATION OF GROUP  2 ...
 GROUP =  2  ITER =  1 CMAX =  0.01760763647789
 GROUP =  2  ITER =  2 CMAX =  0.05499958088801
 GROUP =  2  ITER =  3 CMAX =  0.00374605632384
 GROUP =  2  ITER =  4 CMAX =  0.02048455368864
 GROUP =  2  ITER =  5 CMAX =  0.00462575577501
 GROUP =  2  ITER =  6 CMAX =  0.00020342857566

 ENERGY AND DIFF OF MACROITER    2 =    -76.05228169     -0.00605086

 VB-ORBITAL OPTIMIZATION OF GROUP  2 ...
 GROUP =  2  ITER =  1 CMAX =  0.00428647346378
 GROUP =  2  ITER =  2 CMAX =  0.00783467269722
 GROUP =  2  ITER =  3 CMAX =  0.00021987902587

 ENERGY AND DIFF OF MACROITER    3 =    -76.05301671     -0.00073501

 VB-ORBITAL OPTIMIZATION OF GROUP  2 ...
 GROUP =  2  ITER =  1 CMAX =  0.00137336394663
 GROUP =  2  ITER =  2 CMAX =  0.00178405355261
 GROUP =  2  ITER =  3 CMAX =  0.00007386285872

 ENERGY AND DIFF OF MACROITER    4 =    -76.05308325     -0.00006654

 VB-ORBITAL OPTIMIZATION OF GROUP  2 ...
 GROUP =  2  ITER =  1 CMAX =  0.00033952559960

 ENERGY AND DIFF OF MACROITER    5 =    -76.05310678     -0.00002353

 VB-ORBITAL OPTIMIZATION OF GROUP  2 ...
 GROUP =  2  ITER =  1 CMAX =  0.00056927791474

 ENERGY AND DIFF OF MACROITER    6 =    -76.05311506     -0.00000827

 VB-ORBITAL OPTIMIZATION OF GROUP  2 ...
 GROUP =  2  ITER =  1 CMAX =  0.00040204919037

 ENERGY AND DIFF OF MACROITER    7 =    -76.05311815     -0.00000309

 VB-ORBITAL OPTIMIZATION OF GROUP  2 ...
 GROUP =  2  ITER =  1 CMAX =  0.00040363582374

 ENERGY AND DIFF OF MACROITER    8 =    -76.05311940     -0.00000125

 VB-ORBITAL OPTIMIZATION OF GROUP  2 ...
 GROUP =  2  ITER =  1 CMAX =  0.00027933106752

 ENERGY AND DIFF OF MACROITER    9 =    -76.05311989     -0.00000050

 VB-ORBITAL OPTIMIZATION OF GROUP  2 ...
 GROUP =  2  ITER =  1 CMAX =  0.00024161402714


 OVERLAP MATRIX OF VB ORBITALS FOR GROUP   2

        1      2      3      4
 ===============================
   1 1.0000
   2 0.8147 1.0000
   3-0.1777-0.0913 1.0000
   4-0.0913-0.0128 0.8147 1.0000

 ENERGY AND DIFF OF MACROITER   10 =    -76.05312011     -0.00000022


 MULLIKEN CHARGES ON ATOMS
 -------------------------
  ATOM             CHARGE 

    1            -0.80230
    2             0.40115
    3             0.40115

 -------------------------


 ORBITALS OF EACH ELECTRON GROUP IN AO BASIS: ORBITAL(GROUP)
 ===========================================================================
    Orbital#             1         2         3         4         5         6
      Group#             1         1         1         2         2         2
 ---------------------------------------------------------------------------
  AO# LABELS
   1  1  O     s  -1.01055   0.11294   0.00001   0.07395   0.02333  -0.07395
   2  1  O     s   0.02562  -0.47596   0.00000  -0.23466  -0.00311   0.23466
   3  1  O     x   0.00000   0.00000   0.00000   0.48795   0.16145   0.48795
   4  1  O     y  -0.00001  -0.00001  -0.63966   0.00000   0.00000  -0.00000
   5  1  O     z  -0.02594   0.26940  -0.00000  -0.51449  -0.18291   0.51449
   6  1  O     s   0.04922  -0.54800   0.00001  -0.06723   0.06238   0.06723
   7  1  O     x   0.00000   0.00000   0.00000   0.19606   0.17441   0.19606
   8  1  O     y  -0.00000  -0.00001  -0.51144   0.00000   0.00000  -0.00000
   9  1  O     z  -0.01857   0.20680  -0.00000  -0.24286  -0.23251   0.24286
  10  1  O    xx   0.00624  -0.02002   0.00000  -0.00568  -0.01451   0.00568
  11  1  O    yy   0.00456  -0.00647   0.00000   0.01547  -0.00068  -0.01547
  12  1  O    zz   0.00314   0.01175  -0.00000  -0.03421  -0.03280   0.03421
  13  1  O    xy  -0.00000   0.00000   0.00000   0.00000  -0.00000   0.00000
  14  1  O    xz   0.00000   0.00000   0.00000   0.04054   0.02221   0.04054
  15  1  O    yz  -0.00000  -0.00000  -0.03346   0.00000   0.00000  -0.00000
  16  2  H     s   0.00155  -0.01284   0.00000  -0.00562   0.02654   0.06342
  17  2  H     s  -0.00482   0.05402  -0.00000   0.00860   0.03581   0.02667
  18  3  H     s   0.00155  -0.01284   0.00000  -0.06342  -0.52492   0.00562
  19  3  H     s  -0.00482   0.05402  -0.00000  -0.02667  -0.23055  -0.00860

 ===========================================================================
    Orbital#             7
      Group#             2
 ---------------------------------------------------------------------------
  AO# LABELS
   1  1  O     s  -0.02333
   2  1  O     s   0.00311
   3  1  O     x   0.16145
   4  1  O     y  -0.00000
   5  1  O     z   0.18291
   6  1  O     s  -0.06238
   7  1  O     x   0.17441
   8  1  O     y  -0.00000
   9  1  O     z   0.23251
  10  1  O    xx   0.01451
  11  1  O    yy   0.00068
  12  1  O    zz   0.03280
  13  1  O    xy  -0.00000
  14  1  O    xz   0.02221
  15  1  O    yz  -0.00000
  16  2  H     s   0.52492
  17  2  H     s   0.23055
  18  3  H     s  -0.02654
  19  3  H     s  -0.03581


 CALCULATION OF POSITION AND EXTENT OF VB ORBITALS

 DEFAULT CENTROIDS AND EXTENTS.

 MOLECULAR GEOMETRY ABOUT CENTER OF MASS

  Atom#   ATOMIC NO.     X        Y        Z
    1         8        0.0000   0.0000  -0.0656
    2         1        0.7572  -0.0000   0.5209
    3         1       -0.7572   0.0000   0.5209

 CENTROIDS OF CHARGE FOR EACH VB GROUP & DISTANCES FROM 3 ATOMS

                                                  DISTANCES FROM ATOMS
 Orbital#   Group#       X        Y        Z        1        2        3
    4         2       -0.1732  -0.0000   0.1240   0.2568   1.0115   0.7061
    5         2       -0.5595  -0.0000   0.4018   0.7291   1.3221   0.2308
    6         2        0.1732  -0.0000   0.1240   0.2568   0.7061   1.0115
    7         2        0.5595  -0.0000   0.4018   0.7291   0.2308   1.3221

 EXTENT OF ORBITAL MEASURED BY (<R**2>)

 Orbital#   Group#     <X**2>   <Y**2>   <Z**2>   <R**2> Sqrt<R**2>

    4         2        0.1518   0.0913   0.1587   0.4019   0.6339
    5         2        0.2551   0.1450   0.2163   0.6164   0.7851
    6         2        0.1518   0.0913   0.1587   0.4019   0.6339
    7         2        0.2551   0.1450   0.2163   0.6164   0.7851

 WORDS OF DYNAMIC MEMORY USED IN VB2000 CODE ONLY:       27252
 NOTE THAT THIS IS IN ADDITION TO MEMORY USED BY GAMESS
 PRINTED NEAR END OF OUTPUT. ADD THE TWO AMOUNTS TO GIVE
 THE TOTAL MEMORY USED BY THE JOB

 STATISTICS OF CPU TIMES (SECONDS)
 CPU TIME FOR INITIALIZATION        0.010
 CPU TIME FOR MACROITERATION        0.140
 TOTAL CPU TIME                     0.150

 STEP CPU TIME =     0.21 TOTAL CPU TIME =        0.2 (    0.0 MIN)
 TOTAL WALL CLOCK TIME=        0.3 SECONDS, CPU UTILIZATION IS  88.89%

 **************************************************************
 *                                                            *
 *                  ENDING GAMESS(US) VB2000                  *
 *                                                            *
 *  Properties for individual molecular orbitals are correct  *
 *   only for VB modified orbitals in a Hartree-Fock group.   *
 *                                                            *
 **************************************************************

     ----------------------------------
     PROPERTIES FOR THE VB WAVEFUNCTION
     ----------------------------------

          -----------------
          ENERGY COMPONENTS
          -----------------

         WAVEFUNCTION NORMALIZATION =       1.0000000000

                ONE ELECTRON ENERGY =    -122.9999775152
                TWO ELECTRON ENERGY =      37.7576427847
           NUCLEAR REPULSION ENERGY =       9.1892146195
                                      ------------------
                       TOTAL ENERGY =     -76.0531201109

 ELECTRON-ELECTRON POTENTIAL ENERGY =      37.7576427847
  NUCLEUS-ELECTRON POTENTIAL ENERGY =    -198.9302965485
   NUCLEUS-NUCLEUS POTENTIAL ENERGY =       9.1892146195
                                      ------------------
             TOTAL POTENTIAL ENERGY =    -151.9834391443
               TOTAL KINETIC ENERGY =      75.9303190334
                 VIRIAL RATIO (V/T) =       2.0016172865

          ---------------------------------------
          MULLIKEN AND LOWDIN POPULATION ANALYSES
          ---------------------------------------

     ATOMIC MULLIKEN POPULATION IN EACH MOLECULAR ORBITAL

                      1          2          3          4          5

                  2.000000   2.000000   2.000000   2.000000   2.000000

    1             1.999450   2.075916   2.000000   1.775068   2.000000
    2             0.000275  -0.037958  -0.000000   0.112466   0.000000
    3             0.000275  -0.037958  -0.000000   0.112466   0.000000

               ----- POPULATIONS IN EACH AO -----
                             MULLIKEN      LOWDIN
              1  O  1  S      1.99532     1.97772
              2  O  1  S      0.90880     0.71904
              3  O  1  X      0.80850     0.74767
              4  O  1  Y      1.14646     1.12656
              5  O  1  Z      0.94313     0.89781
              6  O  1  S      0.91375     0.48166
              7  O  1  X      0.49119     0.56743
              8  O  1  Y      0.85130     0.87120
              9  O  1  Z      0.66534     0.72469
             10  O  1 XX      0.03506     0.20259
             11  O  1 YY      0.00322     0.16942
             12  O  1 ZZ      0.01705     0.17928
             13  O  1 XY      0.00000     0.00000
             14  O  1 XZ      0.02094     0.02894
             15  O  1 YZ      0.00224     0.00224
             16  H  2  S      0.48423     0.44172
             17  H  2  S      0.11462     0.21016
             18  H  3  S      0.48423     0.44172
             19  H  3  S      0.11462     0.21016

          ----- MULLIKEN ATOMIC OVERLAP POPULATIONS -----
          (OFF-DIAGONAL ELEMENTS NEED TO BE MULTIPLIED BY 2)

             1           2           3

    1    8.2991231
    2    0.2515893   0.3669537
    3    0.2515893  -0.0196937   0.3669537

          TOTAL MULLIKEN AND LOWDIN ATOMIC POPULATIONS
       ATOM         MULL.POP.    CHARGE          LOW.POP.     CHARGE
    1 O             8.802302   -0.802302         8.696248   -0.696248
    2 H             0.598849    0.401151         0.651876    0.348124
    3 H             0.598849    0.401151         0.651876    0.348124

          -------------------------------
          BOND ORDER AND VALENCE ANALYSIS     BOND ORDER THRESHOLD=0.050
          -------------------------------

                   BOND                       BOND                       BOND
  ATOM PAIR DIST  ORDER      ATOM PAIR DIST  ORDER      ATOM PAIR DIST  ORDER
    1   2  0.958  0.777        1   3  0.958  0.777

                       TOTAL       BONDED        FREE
      ATOM            VALENCE     VALENCE     VALENCE
    1 O                 1.644       1.554       0.091
    2 H                 0.807       0.772       0.035
    3 H                 0.807       0.772       0.035

          ---------------------
          ELECTROSTATIC MOMENTS
          ---------------------

 POINT   1           X           Y           Z (BOHR)    CHARGE
                 0.000000   -0.000000    0.124046       -0.00 (A.U.)
         DX          DY          DZ         /D/  (DEBYE)
    -0.000000   -0.000000    2.113177    2.113177
        QXX         QYY         QZZ         QXY         QXZ         QYZ  (BUCKINGHAMS)
     2.267019   -2.205884   -0.061135    0.000000   -0.000000    0.000000
        OXXX        OXXY        OXXZ        OXYY        OYYY        OYYZ
    -0.000000    0.000000    1.871925    0.000000   -0.000000   -0.742703
        OXZZ        OYZZ        OZZZ        OXYZ  (X10**34 ESU-CM**3)
     0.000000    0.000000   -1.129222   -0.000000

          ----------------
          ELECTRON DENSITY
          ----------------
  POINT      X         Y         Z             DENSITY
                     (BOHR)                    (A.U.)
     1     0.00000   0.00000   0.00000       290.366703
     2    -1.43093   0.00000   1.10839         0.409096
     3     1.43093   0.00000   1.10839         0.409096
     4     0.00000   1.88973   0.00000         0.045098
     5     0.00000  -1.88973   0.00000         0.045098
     6     0.00000   0.00000   1.13384         0.284344

          -----------------------
          ELECTROSTATIC POTENTIAL
          -----------------------

  THE CONTRIBUTION FROM EACH NUCLEUS AT ITS OWN POSITION IS NEGLECTED

   POINT      X          Y          Z           ELECTRONIC      NUCLEAR         TOTAL
                       (BOHR)                                    (A.U.)
      1    0.00000    0.00000    0.00000       -23.421387       1.104974     -22.316413
      2    1.43093   -0.00000    1.10839        -5.779599       4.769319      -1.010281
      3   -1.43093    0.00000    1.10839        -5.779599       4.769319      -1.010281

          -----------------------
          ELECTRIC FIELD/GRADIENT 
          -----------------------

  THE CONTRIBUTION FROM EACH NUCLEUS AT ITS OWN POSITION IS NEGLECTED

 POINT     1             X               Y               Z       (BOHR)
                     0.000000        0.000000        0.000000
            EFX             EFY             EFZ            /EF/       (A.U.)
        -0.000000        0.000000       -0.134590        0.134590
           EFGXX           EFGYY           EFGZZ           EFGXY           EFGXZ           EFGYZ
        -1.617579        1.876588       -0.259009       -0.000000        0.000000        0.000000

 POINT     2             X               Y               Z       (BOHR)
                     1.430930       -0.000000        1.108391
            EFX             EFY             EFZ            /EF/       (A.U.)
         0.052669        0.000000        0.032144        0.061703
           EFGXX           EFGYY           EFGZZ           EFGXY           EFGXZ           EFGYZ
        -0.236698        0.284743       -0.048045       -0.000000       -0.345135       -0.000000

 POINT     3             X               Y               Z       (BOHR)
                    -1.430930        0.000000        1.108391
            EFX             EFY             EFZ            /EF/       (A.U.)
        -0.052669        0.000000        0.032144        0.061703
           EFGXX           EFGYY           EFGZZ           EFGXY           EFGXZ           EFGYZ
        -0.236698        0.284743       -0.048045        0.000000        0.345135       -0.000000
 ...... END OF PROPERTY EVALUATION ......
 STEP CPU TIME =     0.01 TOTAL CPU TIME =        0.3 (    0.0 MIN)
 TOTAL WALL CLOCK TIME=        0.3 SECONDS, CPU UTILIZATION IS  92.59%
               580000  WORDS OF DYNAMIC MEMORY USED
 EXECUTION OF GAMESS TERMINATED NORMALLY Mon Oct 14 07:29:21 2013
 DDI: 263624 bytes (0.3 MB / 0 MWords) used by master data server.

 ----------------------------------------
 CPU timing information for all processes
 ========================================
 0: 0.232 + 0.24 = 0.256
 ----------------------------------------
 ddikick.x: exited gracefully.
unset echo
----- accounting info -----
Files used on the master node titch-64 were:
-rw-r--r-- 1 brian brian    4944 Oct 14 07:29 /scr/brian/exam-vb14.F05
-rw-rw-r-- 1 brian brian  180016 Oct 14 07:29 /scr/brian/exam-vb14.F08
-rw-rw-r-- 1 brian brian 1505120 Oct 14 07:29 /scr/brian/exam-vb14.F10
-rw-rw-r-- 1 brian brian      88 Oct 14 07:29 /scr/brian/exam-vb14.TEMP02
-rw-rw-r-- 1 brian brian      88 Oct 14 07:29 /scr/brian/exam-vb14.TEMP03
-rw-rw-r-- 1 brian brian     448 Oct 14 07:29 /scr/brian/exam-vb14.TEMP04
-rw-rw-r-- 1 brian brian   13661 Oct 14 07:29 /scr/brian/exam-vb14.TEMP-MOD
-rw-rw-r-- 1 brian brian     729 Oct 14 07:29 /scr/brian/exam-vb14.V80
-rw-rw-r-- 1 brian brian       0 Oct 14 07:29 /scr/brian/exam-vb14.V82
-rw-rw-r-- 1 brian brian       0 Oct 14 07:29 /scr/brian/exam-vb14.V83
-rw-rw-r-- 1 brian brian    3364 Oct 14 07:29 /scr/brian/exam-vb14.V84
-rw-rw-r-- 1 brian brian  136232 Oct 14 07:29 /scr/brian/exam-vb14.V85
-rw-rw-r-- 1 brian brian  196592 Oct 14 07:29 /scr/brian/exam-vb14.V86
-rw-rw-r-- 1 brian brian  196592 Oct 14 07:29 /scr/brian/exam-vb14.V87
-rw-rw-r-- 1 brian brian     736 Oct 14 07:29 /scr/brian/exam-vb14.V88
-rw-rw-r-- 1 brian brian       0 Oct 14 07:29 /scr/brian/exam-vb14.V89
ls: No match.
ls: No match.
ls: No match.
Mon Oct 14 07:29:24 EST 2013
0.080u 0.008s 0:03.41 2.3%	0+0k 16+24io 0pf+0w
