----- GAMESS execution script 'rungms' -----
This job is running on host titch-64
under operating system Linux at Mon Oct 14 07:29:46 EST 2013
Available scratch disk space (Kbyte units) at beginning of the job is
Filesystem     1K-blocks      Used Available Use% Mounted on
/dev/sda1      945022356 138266704 758751300  16% /
GAMESS temporary binary files will be written to /scr/brian
GAMESS supplementary output files will be written to /home/brian/scr
Copying input file exam-vb20.inp to your run's scratch directory...
cp tests/exam-vb20.inp /scr/brian/exam-vb20.F05
unset echo
/home/brian/qchem/gamess/ddikick.x /home/brian/qchem/gamess/gamess.01.x exam-vb20 -ddi 1 1 titch-64 -scr /scr/brian

 Distributed Data Interface kickoff program.
 Initiating 1 compute processes on 1 nodes to run the following command:
 /home/brian/qchem/gamess/gamess.01.x exam-vb20 

          ******************************************************
          *         GAMESS VERSION =  1 MAY 2013 (R1)          *
          *             FROM IOWA STATE UNIVERSITY             *
          * M.W.SCHMIDT, K.K.BALDRIDGE, J.A.BOATZ, S.T.ELBERT, *
          *   M.S.GORDON, J.H.JENSEN, S.KOSEKI, N.MATSUNAGA,   *
          *          K.A.NGUYEN, S.J.SU, T.L.WINDUS,           *
          *       TOGETHER WITH M.DUPUIS, J.A.MONTGOMERY       *
          *         J.COMPUT.CHEM.  14, 1347-1363(1993)        *
          **************** 64 BIT LINUX VERSION ****************

  SINCE 1993, STUDENTS AND POSTDOCS WORKING AT IOWA STATE UNIVERSITY
  AND ALSO IN THEIR VARIOUS JOBS AFTER LEAVING ISU HAVE MADE IMPORTANT
  CONTRIBUTIONS TO THE CODE:
     IVANA ADAMOVIC, CHRISTINE AIKENS, YURI ALEXEEV, POOJA ARORA,
     ANDREY ASADCHEV, ROB BELL, PRADIPTA BANDYOPADHYAY, JONATHAN BENTZ,
     BRETT BODE, GALINA CHABAN, WEI CHEN, CHEOL HO CHOI, PAUL DAY,
     ALBERT DEFUSCO, TIM DUDLEY, DMITRI FEDOROV, GRAHAM FLETCHER,
     MARK FREITAG, KURT GLAESEMANN, DAN KEMP, GRANT MERRILL,
     NORIYUKI MINEZAWA, JONATHAN MULLIN, TAKESHI NAGATA,
     SEAN NEDD, HEATHER NETZLOFF, BOSILJKA NJEGIC, RYAN OLSON, MIKE PAK,
     JIM SHOEMAKER, LYUDMILA SLIPCHENKO, SAROM SOK, JIE SONG,
     TETSUYA TAKETSUGU, SIMON WEBB, SOOHAENG YOO, FEDERICO ZAHARIEV

  ADDITIONAL CODE HAS BEEN PROVIDED BY COLLABORATORS IN OTHER GROUPS:
     IOWA STATE UNIVERSITY:
          JOE IVANIC, LAIMUTIS BYTAUTAS, KLAUS RUEDENBERG
     UNIVERSITY OF TOKYO: KIMIHIKO HIRAO, TAKAHITO NAKAJIMA,
          TAKAO TSUNEDA, MUNEAKI KAMIYA, SUSUMU YANAGISAWA,
          KIYOSHI YAGI, MAHITO CHIBA, SEIKEN TOKURA, NAOAKI KAWAKAMI
     UNIVERSITY OF AARHUS: FRANK JENSEN
     UNIVERSITY OF IOWA: VISVALDAS KAIRYS, HUI LI
     NATIONAL INST. OF STANDARDS AND TECHNOLOGY: WALT STEVENS, DAVID GARMER
     UNIVERSITY OF PISA: BENEDETTA MENNUCCI, JACOPO TOMASI
     UNIVERSITY OF MEMPHIS: HENRY KURTZ, PRAKASHAN KORAMBATH
     UNIVERSITY OF ALBERTA: TOBY ZENG, MARIUSZ KLOBUKOWSKI
     UNIVERSITY OF NEW ENGLAND: MARK SPACKMAN
     MIE UNIVERSITY: HIROAKI UMEDA
     MICHIGAN STATE UNIVERSITY:
          KAROL KOWALSKI, MARTA WLOCH, JEFFREY GOUR, JESSE LUTZ,
          WEI LI, PIOTR PIECUCH
     UNIVERSITY OF SILESIA: MONIKA MUSIAL, STANISLAW KUCHARSKI
     FACULTES UNIVERSITAIRES NOTRE-DAME DE LA PAIX:
          OLIVIER QUINET, BENOIT CHAMPAGNE
     UNIVERSITY OF CALIFORNIA - SANTA BARBARA: BERNARD KIRTMAN
     INSTITUTE FOR MOLECULAR SCIENCE:
          KAZUYA ISHIMURA, MICHIO KATOUDA, AND SHIGERU NAGASE
     UNIVERSITY OF NOTRE DAME: DAN CHIPMAN
     KYUSHU UNIVERSITY:
          HARUYUKI NAKANO,
          FENG LONG GU, JACEK KORCHOWIEC, MARCIN MAKOWSKI, AND YURIKO AOKI,
          HIROTOSHI MORI AND EISAKU MIYOSHI
     PENNSYLVANIA STATE UNIVERSITY:
          TZVETELIN IORDANOV, CHET SWALINA, JONATHAN SKONE,
          SHARON HAMMES-SCHIFFER
     WASEDA UNIVERSITY:
          MASATO KOBAYASHI, TOMOKO AKAMA, TSUGUKI TOUMA,
          TAKESHI YOSHIKAWA, YASUHIRO IKABATA, HIROMI NAKAI
     NANJING UNIVERSITY: SHUHUA LI
     UNIVERSITY OF NEBRASKA:
          PEIFENG SU, DEJUN SI, NANDUN THELLAMUREGE, YALI WANG, HUI LI
     UNIVERSITY OF ZURICH:
          ROBERTO PEVERATI, KIM BALDRIDGE
     N. COPERNICUS UNIVERSITY AND JACKSON STATE UNIVERSITY:
          MARIA BARYSZ

 EXECUTION OF GAMESS BEGUN Mon Oct 14 07:29:46 2013

            ECHO OF THE FIRST FEW INPUT CARDS -
 INPUT CARD>! GAMESS/VB2000 Test 20.                                                        
 INPUT CARD>! This run is both a test of an open shell case, and an illustration            
 INPUT CARD>! of more complex data with a basis set (D95) that is not present in            
 INPUT CARD>! Gamess.                                                                       
 INPUT CARD>!                                                                               
 INPUT CARD>! It is also a badly conditioned system in that the order of the                
 INPUT CARD>! localised orbital differs with different compilers. The $LMOGRPMODIFY         
 INPUT CARD>! data below is often required, but with some compilers it is not and           
 INPUT CARD>! the two pi LMOs are at the top of the occupied orbitals. If this is           
 INPUT CARD>! the case remove the $LMOGRPMODIFY block or alter its name to something        
 INPUT CARD>! not recognised (like $KMOGRPMODIFY).                                          
 INPUT CARD>!                                                                               
 INPUT CARD>! This test is also the first that tests the spin density code, called          
 INPUT CARD>! by the use of SPDEN on the main command line. In the Gamess version,          
 INPUT CARD>! this is necessary to calculate all the VB properties in Gamess on             
 INPUT CARD>! return from the VB2000 routines. It should not normally be missed out         
 INPUT CARD>! for open-shell systems although it is complex and time consuming              
 INPUT CARD>! particularly for VB groups with 10 or more electrons.                         
 INPUT CARD>!                                                                               
 INPUT CARD>! Note that the data has been entered with no symmetry.                         
 INPUT CARD>!                                                                               
 INPUT CARD>! The final ROHF energy is:=                                                    
 INPUT CARD>!                                                                               
 INPUT CARD>! ROHF ENERGY IS -154.8285407061 AFTER  10 ITERATIONS                           
 INPUT CARD>!                                                                               
 INPUT CARD>! The VB final energy is:-                                                      
 INPUT CARD>!                                                                               
 INPUT CARD>! ENERGY AND DIFF OF MACROITER    5 = -154.86929401     -0.00000001             
 INPUT CARD>!                                                                               
 INPUT CARD>! and the VB and HF dipole moments are zero. The spin densities are             
 INPUT CARD>! -0.33638 on atom 1 and  0.77879 on atoms 2, 3 and 4.                          
 INPUT CARD>!                                                                               
 INPUT CARD> $CONTRL SCFTYP=ROHF MULT=3 COORD=UNIQUE                                        
 INPUT CARD>  EXETYP=RUN  UNITS=BOHR VBTYP=VB2000                                           
 INPUT CARD> $END                                                                           
 INPUT CARD> $SYSTEM TIMLIM=20 MEMORY=2000000 $END                                          
 INPUT CARD> $GUESS  GUESS=HUCKEL $END                                                      
 INPUT CARD> $DATA                                                                          
 INPUT CARD>TMM TRIPLET D95                                                                 
 INPUT CARD>C1                                                                              
 INPUT CARD>CARBON    6.0     0.0000000000        0.0000000000        0.0000000000          
 INPUT CARD>  S    6  1.0                                                                   
 INPUT CARD>1   4232.6098633    .0020290001                                                 
 INPUT CARD>2    634.8820190    .0155349998                                                 
 INPUT CARD>3    146.0970001    .0754109994                                                 
 INPUT CARD>4     42.4973984    .2571209967                                                 
 INPUT CARD>5     14.1892004    .5965549946                                                 
 INPUT CARD>6      1.9665999    .2425169945                                                 
 INPUT CARD>   S     1 1.0                                                                  
 INPUT CARD>1      5.1476998   1.0000000000                                                 
    2000000 WORDS OF MEMORY AVAILABLE


     RUN TITLE
     ---------
 TMM TRIPLET D95                                                                 

 THE POINT GROUP OF THE MOLECULE IS C1      
 THE ORDER OF THE PRINCIPAL AXIS IS     0
 *** WARNING! ATOM   5 SHELL   25 TYPE S HAS NORMALIZATION   1.00000234
 *** WARNING! ATOM   6 SHELL   27 TYPE S HAS NORMALIZATION   1.00000234
 *** WARNING! ATOM   7 SHELL   29 TYPE S HAS NORMALIZATION   1.00000234
 *** WARNING! ATOM   8 SHELL   31 TYPE S HAS NORMALIZATION   1.00000234
 *** WARNING! ATOM   9 SHELL   33 TYPE S HAS NORMALIZATION   1.00000234
 *** WARNING! ATOM  10 SHELL   35 TYPE S HAS NORMALIZATION   1.00000234

 ATOM      ATOMIC                      COORDINATES (BOHR)
           CHARGE         X                   Y                   Z
 CARBON      6.0     0.0000000000        0.0000000000        0.0000000000
 CARBON      6.0     0.0000000000        2.6985287117        0.0000000000
 CARBON      6.0     2.3369944172       -1.3492643558        0.0000000000
 CARBON      6.0    -2.3369944172       -1.3492643558        0.0000000000
 HYDROGEN    1.0    -1.7528496640        3.7475875942        0.0000000000
 HYDROGEN    1.0     1.7528496640        3.7475875942        0.0000000000
 HYDROGEN    1.0     4.1219308914       -0.3557814591        0.0000000000
 HYDROGEN    1.0     2.3690812275       -3.3918061351        0.0000000000
 HYDROGEN    1.0    -4.1219308914       -0.3557814591        0.0000000000
 HYDROGEN    1.0    -2.3690812275       -3.3918061351        0.0000000000

          INTERNUCLEAR DISTANCES (ANGS.)
          ------------------------------

                1 CARB       2 CARB       3 CARB       4 CARB       5 HYDR  

   1 CARB    0.0000000    1.4280000 *  1.4280000 *  1.4280000 *  2.1893422 *
   2 CARB    1.4280000 *  0.0000000    2.4733686 *  2.4733686 *  1.0810000 *
   3 CARB    1.4280000 *  2.4733686 *  0.0000000    2.4733686 *  3.4581126  
   4 CARB    1.4280000 *  2.4733686 *  2.4733686 *  0.0000000    2.7147940 *
   5 HYDR    2.1893422 *  1.0810000 *  3.4581126    2.7147940 *  0.0000000  
   6 HYDR    2.1893422 *  1.0810000 *  2.7147940 *  3.4581126    1.8551363 *
   7 HYDR    2.1893422 *  2.7147940 *  1.0810000 *  3.4581126    3.7920520  
   8 HYDR    2.1893422 *  3.4581126    1.0810000 *  2.7147940 *  4.3624641  
   9 HYDR    2.1893422 *  2.7147940 *  3.4581126    1.0810000 *  2.5073278 *
  10 HYDR    2.1893422 *  3.4581126    2.7147940 *  1.0810000 *  3.7920520  

                6 HYDR       7 HYDR       8 HYDR       9 HYDR      10 HYDR  

   1 CARB    2.1893422 *  2.1893422 *  2.1893422 *  2.1893422 *  2.1893422 *
   2 CARB    1.0810000 *  2.7147940 *  3.4581126    2.7147940 *  3.4581126  
   3 CARB    2.7147940 *  1.0810000 *  1.0810000 *  3.4581126    2.7147940 *
   4 CARB    3.4581126    3.4581126    2.7147940 *  1.0810000 *  1.0810000 *
   5 HYDR    1.8551363 *  3.7920520    4.3624641    2.5073278 *  3.7920520  
   6 HYDR    0.0000000    2.5073278 *  3.7920520    3.7920520    4.3624641  
   7 HYDR    2.5073278 *  0.0000000    1.8551363 *  4.3624641    3.7920520  
   8 HYDR    3.7920520    1.8551363 *  0.0000000    3.7920520    2.5073278 *
   9 HYDR    3.7920520    4.3624641    3.7920520    0.0000000    1.8551363 *
  10 HYDR    4.3624641    3.7920520    2.5073278 *  1.8551363 *  0.0000000  

  * ... LESS THAN  3.000


     ATOMIC BASIS SET
     ----------------
 THE CONTRACTED PRIMITIVE FUNCTIONS HAVE BEEN UNNORMALIZED
 THE CONTRACTED BASIS FUNCTIONS ARE NOW NORMALIZED TO UNITY

  SHELL TYPE  PRIMITIVE        EXPONENT          CONTRACTION COEFFICIENT(S)

 CARBON    

      1   S       1          4232.6098633    0.002029000629
      1   S       2           634.8820190    0.015535003848
      1   S       3           146.0970001    0.075411019050
      1   S       4            42.4973984    0.257121063698
      1   S       5            14.1892004    0.596555150044
      1   S       6             1.9665999    0.242517057693

      2   S       7             5.1476998    1.000000000000

      3   S       8             0.4962000    1.000000000000

      4   S       9             0.1533000    1.000000000000

      5   P      10            18.1557007    0.018534002059
      5   P      11             3.9863999    0.115442018731
      5   P      12             1.1429000    0.386206062661
      5   P      13             0.3594000    0.640089077595

      6   P      14             0.1146000    1.000000000000

 CARBON    

      7   S      15          4232.6098633    0.002029000629
      7   S      16           634.8820190    0.015535003848
      7   S      17           146.0970001    0.075411019050
      7   S      18            42.4973984    0.257121063698
      7   S      19            14.1892004    0.596555150044
      7   S      20             1.9665999    0.242517057693

      8   S      21             5.1476998    1.000000000000

      9   S      22             0.4962000    1.000000000000

     10   S      23             0.1533000    1.000000000000

     11   P      24            18.1557007    0.018534002059
     11   P      25             3.9863999    0.115442018731
     11   P      26             1.1429000    0.386206062661
     11   P      27             0.3594000    0.640089077595

     12   P      28             0.1146000    1.000000000000

 CARBON    

     13   S      29          4232.6098633    0.002029000629
     13   S      30           634.8820190    0.015535003848
     13   S      31           146.0970001    0.075411019050
     13   S      32            42.4973984    0.257121063698
     13   S      33            14.1892004    0.596555150044
     13   S      34             1.9665999    0.242517057693

     14   S      35             5.1476998    1.000000000000

     15   S      36             0.4962000    1.000000000000

     16   S      37             0.1533000    1.000000000000

     17   P      38            18.1557007    0.018534002059
     17   P      39             3.9863999    0.115442018731
     17   P      40             1.1429000    0.386206062661
     17   P      41             0.3594000    0.640089077595

     18   P      42             0.1146000    1.000000000000

 CARBON    

     19   S      43          4232.6098633    0.002029000629
     19   S      44           634.8820190    0.015535003848
     19   S      45           146.0970001    0.075411019050
     19   S      46            42.4973984    0.257121063698
     19   S      47            14.1892004    0.596555150044
     19   S      48             1.9665999    0.242517057693

     20   S      49             5.1476998    1.000000000000

     21   S      50             0.4962000    1.000000000000

     22   S      51             0.1533000    1.000000000000

     23   P      52            18.1557007    0.018534002059
     23   P      53             3.9863999    0.115442018731
     23   P      54             1.1429000    0.386206062661
     23   P      55             0.3594000    0.640089077595

     24   P      56             0.1146000    1.000000000000

 HYDROGEN  

     25   S      57            19.2406000    0.032828076968
     25   S      58             2.8992000    0.231208542086
     25   S      59             0.6534000    0.817239916083

     26   S      60             0.1776000    1.000000000000

 HYDROGEN  

     27   S      61            19.2406000    0.032828076968
     27   S      62             2.8992000    0.231208542086
     27   S      63             0.6534000    0.817239916083

     28   S      64             0.1776000    1.000000000000

 HYDROGEN  

     29   S      65            19.2406000    0.032828076968
     29   S      66             2.8992000    0.231208542086
     29   S      67             0.6534000    0.817239916083

     30   S      68             0.1776000    1.000000000000

 HYDROGEN  

     31   S      69            19.2406000    0.032828076968
     31   S      70             2.8992000    0.231208542086
     31   S      71             0.6534000    0.817239916083

     32   S      72             0.1776000    1.000000000000

 HYDROGEN  

     33   S      73            19.2406000    0.032828076968
     33   S      74             2.8992000    0.231208542086
     33   S      75             0.6534000    0.817239916083

     34   S      76             0.1776000    1.000000000000

 HYDROGEN  

     35   S      77            19.2406000    0.032828076968
     35   S      78             2.8992000    0.231208542086
     35   S      79             0.6534000    0.817239916083

     36   S      80             0.1776000    1.000000000000

 TOTAL NUMBER OF BASIS SET SHELLS             =   36
 NUMBER OF CARTESIAN GAUSSIAN BASIS FUNCTIONS =   52
 NUMBER OF ELECTRONS                          =   30
 CHARGE OF MOLECULE                           =    0
 SPIN MULTIPLICITY                            =    3
 NUMBER OF OCCUPIED ORBITALS (ALPHA)          =   16
 NUMBER OF OCCUPIED ORBITALS (BETA )          =   14
 TOTAL NUMBER OF ATOMS                        =   10
 THE NUCLEAR REPULSION ENERGY IS      104.6690029318

     $CONTRL OPTIONS
     ---------------
 SCFTYP=ROHF         RUNTYP=ENERGY       EXETYP=RUN     
 MPLEVL=       0     CITYP =NONE         CCTYP =NONE         VBTYP =VB2000  
 DFTTYP=NONE         TDDFT =NONE    
 MULT  =       3     ICHARG=       0     NZVAR =       0     COORD =UNIQUE  
 PP    =NONE         RELWFN=NONE         LOCAL =NONE         NUMGRD=       F
 ISPHER=      -1     NOSYM =       0     MAXIT =      30     UNITS =BOHR    
 PLTORB=       F     MOLPLT=       F     AIMPAC=       F     FRIEND=        
 NPRINT=       7     IREST =       0     GEOM  =INPUT   
 NORMF =       0     NORMP =       0     ITOL  =      20     ICUT  =       9
 INTTYP=BEST         GRDTYP=BEST         QMTTOL= 1.0E-06

     $SYSTEM OPTIONS
     ---------------
  REPLICATED MEMORY=     2000000 WORDS (ON EVERY NODE).
 DISTRIBUTED MEMDDI=           0 MILLION WORDS IN AGGREGATE,
 MEMDDI DISTRIBUTED OVER   1 PROCESSORS IS           0 WORDS/PROCESSOR.
 TOTAL MEMORY REQUESTED ON EACH PROCESSOR=     2000000 WORDS.
 TIMLIM=          20.00 MINUTES, OR       0.0 DAYS.
 PARALL= F  BALTYP=  DLB     KDIAG=    0  COREFL= F
 MXSEQ2=     300 MXSEQ3=     150

          ----------------
          PROPERTIES INPUT
          ----------------

     MOMENTS            FIELD           POTENTIAL          DENSITY
 IEMOM =       1   IEFLD =       0   IEPOT =       0   IEDEN =       0
 WHERE =COMASS     WHERE =NUCLEI     WHERE =NUCLEI     WHERE =NUCLEI  
 OUTPUT=BOTH       OUTPUT=BOTH       OUTPUT=BOTH       OUTPUT=BOTH    
 IEMINT=       0   IEFINT=       0                     IEDINT=       0
                                                       MORB  =       0
          EXTRAPOLATION IN EFFECT
          SOSCF IN EFFECT
 ORBITAL PRINTING OPTION: NPREO=     1    52     2     1

     -------------------------------
     INTEGRAL TRANSFORMATION OPTIONS
     -------------------------------
     NWORD  =            0
     CUTOFF = 1.0E-09     MPTRAN =       0
     DIRTRF =       F     AOINTS =DUP     

          ----------------------
          INTEGRAL INPUT OPTIONS
          ----------------------
 NOPK  =       1 NORDER=       0 SCHWRZ=       T

     ------------------------------------------
     THE POINT GROUP IS C1 , NAXIS= 0, ORDER= 1
     ------------------------------------------

     DIMENSIONS OF THE SYMMETRY SUBSPACES ARE
 A   =   52

 ..... DONE SETTING UP THE RUN .....
 STEP CPU TIME =     0.01 TOTAL CPU TIME =        0.0 (    0.0 MIN)
 TOTAL WALL CLOCK TIME=        0.0 SECONDS, CPU UTILIZATION IS  33.33%

          ********************
          1 ELECTRON INTEGRALS
          ********************
 ...... END OF ONE-ELECTRON INTEGRALS ......
 STEP CPU TIME =     0.01 TOTAL CPU TIME =        0.0 (    0.0 MIN)
 TOTAL WALL CLOCK TIME=        0.0 SECONDS, CPU UTILIZATION IS  66.67%

          -------------
          GUESS OPTIONS
          -------------
          GUESS =HUCKEL            NORB  =       0          NORDER=       0
          MIX   =       F          PRTMO =       F          PUNMO =       F
          TOLZ  = 1.0E-08          TOLE  = 1.0E-05
          SYMDEN=       F          PURIFY=       F

 INITIAL GUESS ORBITALS GENERATED BY HUCKEL   ROUTINE.
 HUCKEL GUESS REQUIRES     29508 WORDS.

 SYMMETRIES FOR INITIAL GUESS ORBITALS FOLLOW.  ALPHA SET(S).
    16 ORBITALS ARE OCCUPIED (    4 CORE ORBITALS).
     5=A        6=A        7=A        8=A        9=A       10=A       11=A   
    12=A       13=A       14=A       15=A       16=A       17=A       18=A   
    19=A       20=A       21=A       22=A       23=A       24=A       25=A   
    26=A   

 SYMMETRIES FOR INITIAL GUESS ORBITALS FOLLOW.   BETA SET(S).
    14 ORBITALS ARE OCCUPIED (    4 CORE ORBITALS).
     5=A        6=A        7=A        8=A        9=A       10=A       11=A   
    12=A       13=A       14=A       15=A       16=A       17=A       18=A   
    19=A       20=A       21=A       22=A       23=A       24=A   
 ...... END OF INITIAL ORBITAL SELECTION ......
 STEP CPU TIME =     0.00 TOTAL CPU TIME =        0.0 (    0.0 MIN)
 TOTAL WALL CLOCK TIME=        0.0 SECONDS, CPU UTILIZATION IS  66.67%

                    ----------------------
                    AO INTEGRAL TECHNOLOGY
                    ----------------------
     S,P,L SHELL ROTATED AXIS INTEGRALS, REPROGRAMMED BY
        KAZUYA ISHIMURA (IMS) AND JOSE SIERRA (SYNSTAR).
     S,P,D,L SHELL ROTATED AXIS INTEGRALS PROGRAMMED BY
        KAZUYA ISHIMURA (INSTITUTE FOR MOLECULAR SCIENCE).
     S,P,D,F,G SHELL TO TOTAL QUARTET ANGULAR MOMENTUM SUM 5,
        ERIC PROGRAM BY GRAHAM FLETCHER (ELORET AND NASA ADVANCED
        SUPERCOMPUTING DIVISION, AMES RESEARCH CENTER).
     S,P,D,F,G,L SHELL GENERAL RYS QUADRATURE PROGRAMMED BY
        MICHEL DUPUIS (PACIFIC NORTHWEST NATIONAL LABORATORY).

          --------------------
          2 ELECTRON INTEGRALS
          --------------------

 THE -PK- OPTION IS OFF, THE INTEGRALS ARE NOT IN SUPERMATRIX FORM.
 STORING   15000 INTEGRALS/RECORD ON DISK, USING 12 BYTES/INTEGRAL.
 TWO ELECTRON INTEGRAL EVALUATION REQUIRES   90022 WORDS OF MEMORY.
 SCHWARZ INEQUALITY OVERHEAD:      1375 INTEGRALS, T=        0.00
 II,JST,KST,LST =  1  1  1  1 NREC =         1 INTLOC =    1
 II,JST,KST,LST =  2  1  1  1 NREC =         1 INTLOC =    2
 II,JST,KST,LST =  3  1  1  1 NREC =         1 INTLOC =    7
 II,JST,KST,LST =  4  1  1  1 NREC =         1 INTLOC =   22
 II,JST,KST,LST =  5  1  1  1 NREC =         1 INTLOC =   56
 II,JST,KST,LST =  6  1  1  1 NREC =         1 INTLOC =  125
 II,JST,KST,LST =  7  1  1  1 NREC =         1 INTLOC =  329
 II,JST,KST,LST =  8  1  1  1 NREC =         1 INTLOC =  598
 II,JST,KST,LST =  9  1  1  1 NREC =         1 INTLOC =  946
 II,JST,KST,LST = 10  1  1  1 NREC =         1 INTLOC = 1437
 II,JST,KST,LST = 11  1  1  1 NREC =         1 INTLOC = 2077
 II,JST,KST,LST = 12  1  1  1 NREC =         1 INTLOC = 3938
 II,JST,KST,LST = 13  1  1  1 NREC =         1 INTLOC = 6866
 II,JST,KST,LST = 14  1  1  1 NREC =         1 INTLOC = 9410
 II,JST,KST,LST = 15  1  1  1 NREC =         1 INTLOC =12240
 II,JST,KST,LST = 16  1  1  1 NREC =         2 INTLOC = 1047
 II,JST,KST,LST = 17  1  1  1 NREC =         2 INTLOC = 5467
 II,JST,KST,LST = 18  1  1  1 NREC =         3 INTLOC = 4632
 II,JST,KST,LST = 19  1  1  1 NREC =         4 INTLOC = 8878
 II,JST,KST,LST = 20  1  1  1 NREC =         5 INTLOC = 1365
 II,JST,KST,LST = 21  1  1  1 NREC =         5 INTLOC = 9315
 II,JST,KST,LST = 22  1  1  1 NREC =         6 INTLOC = 4932
 II,JST,KST,LST = 23  1  1  1 NREC =         7 INTLOC = 1757
 II,JST,KST,LST = 24  1  1  1 NREC =         9 INTLOC = 7207
 II,JST,KST,LST = 25  1  1  1 NREC =        12 INTLOC = 6567
 II,JST,KST,LST = 26  1  1  1 NREC =        13 INTLOC =10680
 II,JST,KST,LST = 27  1  1  1 NREC =        15 INTLOC = 3101
 II,JST,KST,LST = 28  1  1  1 NREC =        16 INTLOC =10504
 II,JST,KST,LST = 29  1  1  1 NREC =        18 INTLOC = 6629
 II,JST,KST,LST = 30  1  1  1 NREC =        20 INTLOC = 2444
 II,JST,KST,LST = 31  1  1  1 NREC =        22 INTLOC = 2742
 II,JST,KST,LST = 32  1  1  1 NREC =        24 INTLOC = 1754
 II,JST,KST,LST = 33  1  1  1 NREC =        26 INTLOC = 6564
 II,JST,KST,LST = 34  1  1  1 NREC =        28 INTLOC = 9455
 II,JST,KST,LST = 35  1  1  1 NREC =        31 INTLOC = 4162
 II,JST,KST,LST = 36  1  1  1 NREC =        33 INTLOC =11732
 SCHWARZ INEQUALITY TEST SKIPPED       22440 INTEGRAL BLOCKS.
 TOTAL NUMBER OF NONZERO TWO-ELECTRON INTEGRALS =              536912
         36 INTEGRAL RECORDS WERE STORED ON DISK FILE  8.
  ...... END OF TWO-ELECTRON INTEGRALS .....
 STEP CPU TIME =     0.20 TOTAL CPU TIME =        0.2 (    0.0 MIN)
 TOTAL WALL CLOCK TIME=        0.2 SECONDS, CPU UTILIZATION IS  95.65%

          ---------------------------
                 ROHF SCF CALCULATION
          ---------------------------

     NUCLEAR ENERGY =       104.6690029318
     MAXIT = 30     NPUNCH=  2     MULT=  3
     EXTRAP=T  DAMP=F  SHIFT=F  RSTRCT=F  DIIS=F  SOSCF=T
     DENSITY MATRIX CONV=  1.00E-05
     ROHF CANONICALIZATION PARAMETERS
             C-C     O-O     V-V
     ALPHA -0.5000  0.5000  1.5000
     BETA   1.5000  0.5000 -0.5000
     SOSCF WILL OPTIMIZE     604 ORBITAL ROTATION ANGLES. SOGTOL= 2.500E-01
     MEMORY REQUIRED FOR UHF/ROHF ITERS=     58640 WORDS.

 ITER EX      TOTAL ENERGY        E CHANGE  DENSITY CHANGE    ORB. GRAD 
   1  0     -154.5200878291  -154.5200878291   0.388763243   0.000000000
          ---------------START SECOND ORDER SCF---------------
   2  1     -154.8126313824    -0.2925435534   0.177494020   0.042531517
   3  2     -154.8225408613    -0.0099094788   0.054998930   0.029208055
   4  3     -154.8284824813    -0.0059416200   0.004375038   0.001792641
   5  4     -154.8285329957    -0.0000505144   0.002052736   0.000954815
   6  5     -154.8285405660    -0.0000075704   0.000345576   0.000076378
   7  6     -154.8285407005    -0.0000001344   0.000053060   0.000017052
   8  7     -154.8285407057    -0.0000000053   0.000018022   0.000004260
   9  8     -154.8285407061    -0.0000000003   0.000005921   0.000001452
  10  9     -154.8285407061     0.0000000000   0.000002769   0.000001689

          -----------------
          DENSITY CONVERGED
          -----------------
     TIME TO FORM FOCK OPERATORS=       0.1 SECONDS (       0.0 SEC/ITER)
     TIME TO SOLVE SCF EQUATIONS=       0.0 SECONDS (       0.0 SEC/ITER)

 FINAL ROHF ENERGY IS     -154.8285407061 AFTER  10 ITERATIONS

          --------------------
          SPIN SZ   =    1.000
          S-SQUARED =    2.000
          --------------------

          ------------
          EIGENVECTORS
          ------------

                      1          2          3          4          5
                  -11.2689   -11.2274   -11.2274   -11.2274    -1.0599
                     A          A          A          A          A   
    1  C  1  S    0.600810  -0.011922   0.002506  -0.000022  -0.102771
    2  C  1  S    0.437351  -0.008758   0.001841  -0.000016  -0.138730
    3  C  1  S    0.004745   0.000223  -0.000047   0.000000   0.383512
    4  C  1  S   -0.001456   0.000320  -0.000067   0.000001   0.180915
    5  C  1  X   -0.000000  -0.000031  -0.000149   0.000089  -0.000001
    6  C  1  Y   -0.000000  -0.000018  -0.000087  -0.000152  -0.000001
    7  C  1  Z   -0.000000  -0.000000  -0.000000  -0.000000   0.000000
    8  C  1  X    0.000000  -0.000154  -0.000729   0.000434   0.000001
    9  C  1  Y    0.000000  -0.000088  -0.000425  -0.000745   0.000000
   10  C  1  Z   -0.000000  -0.000000  -0.000000  -0.000000   0.000000
   11  C  2  S    0.006897   0.289386  -0.313489  -0.423313  -0.054185
   12  C  2  S    0.004950   0.210739  -0.228283  -0.308255  -0.073171
   13  C  2  S    0.000363   0.001922  -0.002170  -0.002958   0.201909
   14  C  2  S    0.000497  -0.000359   0.000891   0.001367   0.118493
   15  C  2  X    0.000000   0.000003   0.000016  -0.000010  -0.000000
   16  C  2  Y   -0.000486  -0.000104   0.000086   0.000108  -0.106364
   17  C  2  Z   -0.000000  -0.000000  -0.000000  -0.000000   0.000000
   18  C  2  X   -0.000000   0.000034   0.000163  -0.000097  -0.000000
   19  C  2  Y   -0.000068  -0.000029  -0.000252  -0.000433   0.007910
   20  C  2  Z   -0.000000  -0.000000  -0.000000  -0.000000   0.000000
   21  C  3  S    0.006897   0.288656  -0.309547   0.426699  -0.054185
   22  C  3  S    0.004950   0.210207  -0.225413   0.310720  -0.073171
   23  C  3  S    0.000363   0.001917  -0.002142   0.002982   0.201909
   24  C  3  S    0.000497  -0.000357   0.000878  -0.001376   0.118493
   25  C  3  X   -0.000421  -0.000088   0.000082  -0.000090  -0.092114
   26  C  3  Y    0.000243   0.000055  -0.000029   0.000063   0.053182
   27  C  3  Z   -0.000000  -0.000000  -0.000000  -0.000000   0.000000
   28  C  3  X   -0.000059  -0.000009  -0.000133   0.000425   0.006850
   29  C  3  Y    0.000034   0.000045   0.000266  -0.000135  -0.003955
   30  C  3  Z   -0.000000  -0.000000  -0.000000  -0.000000   0.000000
   31  C  4  S    0.006898   0.440505   0.408860  -0.001518  -0.054186
   32  C  4  S    0.004951   0.320783   0.297728  -0.001105  -0.073172
   33  C  4  S    0.000363   0.002978   0.002878  -0.000011   0.201912
   34  C  4  S    0.000497  -0.000847  -0.001440   0.000006   0.118495
   35  C  4  X    0.000421   0.000123   0.000085  -0.000010   0.092115
   36  C  4  Y    0.000243   0.000071   0.000049   0.000016   0.053182
   37  C  4  Z   -0.000000  -0.000000  -0.000000  -0.000000   0.000000
   38  C  4  X    0.000059  -0.000109  -0.000421  -0.000095  -0.006850
   39  C  4  Y    0.000034  -0.000063  -0.000242   0.000168  -0.003955
   40  C  4  Z   -0.000000  -0.000000  -0.000000  -0.000000   0.000000
   41  H  5  S   -0.000022   0.000135  -0.000153  -0.000258   0.040028
   42  H  5  S   -0.000056   0.000051   0.000145   0.000043  -0.001829
   43  H  6  S   -0.000022   0.000126  -0.000195  -0.000233   0.040028
   44  H  6  S   -0.000056   0.000012  -0.000041   0.000154  -0.001829
   45  H  7  S   -0.000022   0.000126  -0.000193   0.000235   0.040028
   46  H  7  S   -0.000056   0.000012  -0.000042  -0.000153  -0.001829
   47  H  8  S   -0.000022   0.000134  -0.000151   0.000260   0.040028
   48  H  8  S   -0.000056   0.000051   0.000144  -0.000044  -0.001829
   49  H  9  S   -0.000022   0.000218   0.000245  -0.000026   0.040029
   50  H  9  S   -0.000056  -0.000003  -0.000116  -0.000109  -0.001828
   51  H 10  S   -0.000022   0.000218   0.000245   0.000024   0.040029
   52  H 10  S   -0.000056  -0.000003  -0.000115   0.000110  -0.001828

                      6          7          8          9         10
                   -0.8559    -0.8559    -0.7025    -0.6219    -0.6219
                     A          A          A          A          A   
    1  C  1  S    0.000001  -0.000000  -0.064728   0.000000  -0.000001
    2  C  1  S    0.000001  -0.000000  -0.088735   0.000000  -0.000001
    3  C  1  S   -0.000003   0.000000   0.247332  -0.000000   0.000002
    4  C  1  S   -0.000002   0.000000   0.221967  -0.000000   0.000002
    5  C  1  X   -0.221713   0.128896  -0.000004  -0.133653   0.230630
    6  C  1  Y   -0.128896  -0.221714  -0.000002   0.230625   0.133656
    7  C  1  Z    0.000000   0.000000  -0.000000  -0.000000  -0.000000
    8  C  1  X    0.130054  -0.075609   0.000001   0.036881  -0.063641
    9  C  1  Y    0.075609   0.130054   0.000001  -0.063641  -0.036882
   10  C  1  Z    0.000000   0.000000  -0.000000  -0.000000  -0.000000
   11  C  2  S    0.049451   0.085060   0.037213   0.014607   0.008465
   12  C  2  S    0.066896   0.115067   0.050532   0.020262   0.011742
   13  C  2  S   -0.179108  -0.308083  -0.138341  -0.063150  -0.036597
   14  C  2  S   -0.192736  -0.331525  -0.138484  -0.007851  -0.004550
   15  C  2  X   -0.057619   0.033498  -0.000002  -0.166160   0.286720
   16  C  2  Y    0.004032   0.006933  -0.240260  -0.223804  -0.129704
   17  C  2  Z    0.000000   0.000000  -0.000000  -0.000000  -0.000000
   18  C  2  X   -0.068721   0.039952  -0.000001  -0.056205   0.096985
   19  C  2  Y    0.011119   0.019126  -0.015387  -0.048002  -0.027819
   20  C  2  Z    0.000000   0.000000  -0.000000  -0.000000  -0.000000
   21  C  3  S    0.048939  -0.085356   0.037213  -0.014634   0.008417
   22  C  3  S    0.066203  -0.115467   0.050532  -0.020300   0.011676
   23  C  3  S   -0.177254   0.309153  -0.138341   0.063269  -0.036391
   24  C  3  S   -0.190741   0.332677  -0.138484   0.007866  -0.004524
   25  C  3  X   -0.025454  -0.022600  -0.208072   0.276797   0.031936
   26  C  3  Y   -0.052068  -0.025231   0.120128   0.030976   0.313262
   27  C  3  Z    0.000000   0.000000  -0.000000  -0.000000  -0.000000
   28  C  3  X   -0.024950  -0.036390  -0.013326   0.069593   0.024628
   29  C  3  Y   -0.065223  -0.024645   0.007693   0.024354   0.097981
   30  C  3  Z    0.000000   0.000000  -0.000000  -0.000000  -0.000000
   31  C  4  S   -0.098390   0.000296   0.037212   0.000028  -0.016881
   32  C  4  S   -0.133099   0.000400   0.050531   0.000038  -0.023418
   33  C  4  S    0.356362  -0.001071  -0.138340  -0.000119   0.072985
   34  C  4  S    0.383477  -0.001152  -0.138481  -0.000015   0.009070
   35  C  4  X    0.007043   0.033304   0.208076  -0.165332  -0.224288
   36  C  4  Y    0.003835  -0.057732   0.120133   0.287208  -0.128868
   37  C  4  Z    0.000000   0.000000  -0.000000  -0.000000  -0.000000
   38  C  4  X    0.019279   0.039688   0.013326  -0.055969  -0.048139
   39  C  4  Y    0.010855  -0.068874   0.007694   0.097122  -0.027582
   40  C  4  Z    0.000000   0.000000  -0.000000  -0.000000  -0.000000
   41  H  5  S   -0.040347  -0.116865  -0.112382  -0.010620  -0.164060
   42  H  5  S   -0.037521  -0.023216  -0.068209  -0.014547  -0.085129
   43  H  6  S   -0.081594  -0.092885  -0.112383  -0.147625   0.072350
   44  H  6  S   -0.001609  -0.044093  -0.068208  -0.081093   0.029701
   45  H  7  S   -0.081034   0.093374  -0.112383   0.147388   0.072831
   46  H  7  S   -0.001344   0.044102  -0.068208   0.080996   0.029965
   47  H  8  S   -0.039644   0.117106  -0.112382   0.011155  -0.164025
   48  H  8  S   -0.037381   0.023441  -0.068209   0.014824  -0.085081
   49  H  9  S    0.121239  -0.024220  -0.112383   0.136474   0.091672
   50  H  9  S    0.038991   0.020652  -0.068209   0.066272   0.055378
   51  H 10  S    0.121382   0.023491  -0.112383  -0.136772   0.091226
   52  H 10  S    0.038866  -0.020886  -0.068209  -0.066452   0.055162

                     11         12         13         14         15
                   -0.5336    -0.5123    -0.5123    -0.3079    -0.1070
                     A          A          A          A          A   
    1  C  1  S   -0.000000  -0.000000   0.000000  -0.000000  -0.000000
    2  C  1  S   -0.000000  -0.000000   0.000000  -0.000000  -0.000000
    3  C  1  S    0.000000   0.000001  -0.000000  -0.000000  -0.000000
    4  C  1  S    0.000000   0.000001  -0.000000  -0.000000  -0.000000
    5  C  1  X    0.000008   0.328822  -0.191847  -0.000000  -0.000000
    6  C  1  Y   -0.000014   0.191845   0.328825  -0.000000  -0.000000
    7  C  1  Z    0.000000   0.000000  -0.000000   0.456367   0.000001
    8  C  1  X   -0.000000  -0.006087   0.003551  -0.000000  -0.000000
    9  C  1  Y    0.000001  -0.003551  -0.006087  -0.000000  -0.000000
   10  C  1  Z    0.000000   0.000000  -0.000000   0.183785   0.000001
   11  C  2  S    0.000000  -0.008799  -0.015081  -0.000000  -0.000000
   12  C  2  S    0.000001  -0.012139  -0.020807  -0.000000  -0.000000
   13  C  2  S   -0.000001   0.032699   0.056046  -0.000000  -0.000000
   14  C  2  S   -0.000003   0.055701   0.095472  -0.000000  -0.000000
   15  C  2  X    0.316532  -0.227445   0.132707  -0.000000  -0.000000
   16  C  2  Y    0.000013  -0.183807  -0.315045  -0.000000  -0.000000
   17  C  2  Z    0.000000   0.000000  -0.000000   0.256882  -0.301080
   18  C  2  X    0.060367  -0.035810   0.020894  -0.000000  -0.000000
   19  C  2  Y    0.000003  -0.040231  -0.068956  -0.000000  -0.000000
   20  C  2  Z    0.000000   0.000000  -0.000000   0.091479  -0.189793
   21  C  3  S   -0.000000  -0.008661   0.015160  -0.000000  -0.000000
   22  C  3  S   -0.000000  -0.011950   0.020917  -0.000000  -0.000000
   23  C  3  S    0.000001   0.032187  -0.056341  -0.000000  -0.000000
   24  C  3  S    0.000003   0.054830  -0.095975  -0.000000  -0.000000
   25  C  3  X   -0.158277  -0.271014   0.208958  -0.000000  -0.000000
   26  C  3  Y   -0.274118  -0.107545  -0.271483  -0.000000  -0.000000
   27  C  3  Z    0.000000   0.000000  -0.000000   0.256882  -0.297823
   28  C  3  X   -0.030186  -0.052295   0.049749  -0.000000  -0.000000
   29  C  3  Y   -0.052278  -0.011375  -0.052471  -0.000000  -0.000000
   30  C  3  Z    0.000000   0.000000  -0.000000   0.091479  -0.187741
   31  C  4  S   -0.000000   0.017460  -0.000079  -0.000000  -0.000000
   32  C  4  S   -0.000000   0.024090  -0.000110  -0.000000  -0.000000
   33  C  4  S    0.000000  -0.064888   0.000295  -0.000000  -0.000000
   34  C  4  S    0.000000  -0.110533   0.000503  -0.000000  -0.000000
   35  C  4  X   -0.158270  -0.315273   0.133091  -0.000000  -0.000000
   36  C  4  Y    0.274132  -0.183406  -0.227202  -0.000000  -0.000000
   37  C  4  Z    0.000000   0.000000  -0.000000   0.256882   0.598904
   38  C  4  X   -0.030184  -0.069043   0.021042  -0.000000  -0.000000
   39  C  4  Y    0.052280  -0.040080  -0.035719  -0.000000  -0.000000
   40  C  4  Z    0.000000   0.000000  -0.000000   0.091478   0.377532
   41  H  5  S   -0.147857   0.078930  -0.136540  -0.000000  -0.000000
   42  H  5  S   -0.118499   0.070521  -0.129407  -0.000000  -0.000000
   43  H  6  S    0.147863  -0.157700   0.001527  -0.000000  -0.000000
   44  H  6  S    0.118504  -0.147353  -0.002284  -0.000000  -0.000000
   45  H  7  S   -0.147863  -0.157708  -0.000092  -0.000000  -0.000000
   46  H  7  S   -0.118504  -0.147327   0.003625  -0.000000  -0.000000
   47  H  8  S    0.147857   0.080169   0.135816  -0.000000  -0.000000
   48  H  8  S    0.118499   0.071695   0.128760  -0.000000  -0.000000
   49  H  9  S    0.147865   0.077530  -0.137327  -0.000000  -0.000000
   50  H  9  S    0.118506   0.075657  -0.126463  -0.000000  -0.000000
   51  H 10  S   -0.147865   0.078777   0.136616  -0.000000  -0.000000
   52  H 10  S   -0.118507   0.076805   0.125769  -0.000000  -0.000000

                     16         17         18         19         20
                   -0.1070     0.1295     0.2609     0.2609     0.2676
                     A          A          A          A          A   
    1  C  1  S   -0.000000  -0.000000   0.000001  -0.000000   0.011877
    2  C  1  S   -0.000000  -0.000000   0.000002  -0.000000   0.016135
    3  C  1  S   -0.000000  -0.000000  -0.000000  -0.000000  -0.007612
    4  C  1  S   -0.000000  -0.000000  -0.000074   0.000001  -0.501303
    5  C  1  X   -0.000000  -0.000000   0.178203  -0.103085  -0.000008
    6  C  1  Y   -0.000000  -0.000000   0.103086   0.178203  -0.000004
    7  C  1  Z   -0.000000   0.550528  -0.000000  -0.000000   0.000000
    8  C  1  X   -0.000000  -0.000000   3.337587  -1.930700  -0.000163
    9  C  1  Y   -0.000000  -0.000000   1.930698   3.337591  -0.000093
   10  C  1  Z   -0.000000   1.226739  -0.000000  -0.000000   0.000000
   11  C  2  S   -0.000000  -0.000000   0.023652   0.040891  -0.042180
   12  C  2  S   -0.000000  -0.000000   0.030087   0.052017  -0.058935
   13  C  2  S   -0.000000  -0.000000   0.008960   0.015478   0.130534
   14  C  2  S   -0.000000  -0.000000  -1.736473  -3.001966   1.495493
   15  C  2  X   -0.000000  -0.000000   0.085223  -0.049299  -0.000006
   16  C  2  Y   -0.000000  -0.000000  -0.055784  -0.096444   0.149456
   17  C  2  Z   -0.517725  -0.284012  -0.000000  -0.000000   0.000000
   18  C  2  X   -0.000000  -0.000000  -0.918784   0.531490   0.000048
   19  C  2  Y   -0.000000  -0.000000   0.945451   1.634396   0.372429
   20  C  2  Z   -0.326361  -0.612259  -0.000000  -0.000000   0.000000
   21  C  3  S   -0.000000  -0.000000   0.023584  -0.040931  -0.042180
   22  C  3  S   -0.000000  -0.000000   0.030000  -0.052068  -0.058935
   23  C  3  S   -0.000000  -0.000000   0.008934  -0.015493   0.130534
   24  C  3  S   -0.000000  -0.000000  -1.731425   3.004879   1.495494
   25  C  3  X   -0.000000  -0.000000  -0.005517   0.108182   0.129430
   26  C  3  Y   -0.000000  -0.000000   0.101688  -0.005698  -0.074733
   27  C  3  Z    0.519605  -0.284012  -0.000000  -0.000000   0.000000
   28  C  3  X   -0.000000  -0.000000   0.356567  -1.681775   0.322556
   29  C  3  Y   -0.000000  -0.000000  -1.267814   0.359045  -0.186173
   30  C  3  Z    0.327546  -0.612259  -0.000000  -0.000000   0.000000
   31  C  4  S   -0.000000  -0.000000  -0.047242   0.000040  -0.042177
   32  C  4  S   -0.000000  -0.000000  -0.060097   0.000051  -0.058931
   33  C  4  S   -0.000000  -0.000000  -0.017873   0.000015   0.130537
   34  C  4  S   -0.000000  -0.000000   3.468128  -0.002915   1.495262
   35  C  4  X   -0.000000  -0.000000  -0.096539  -0.049148  -0.129429
   36  C  4  Y   -0.000000  -0.000000  -0.055641   0.085314  -0.074726
   37  C  4  Z   -0.001880  -0.284012  -0.000000  -0.000000   0.000000
   38  C  4  X   -0.000000  -0.000000   1.635634   0.529343  -0.322657
   39  C  4  Y   -0.000000  -0.000000   0.943304  -0.920021  -0.186287
   40  C  4  Z   -0.001185  -0.612260  -0.000000  -0.000000   0.000000
   41  H  5  S   -0.000000  -0.000000   0.038153  -0.017552  -0.018806
   42  H  5  S   -0.000000  -0.000000  -0.142570   0.100086  -0.930272
   43  H  6  S   -0.000000  -0.000000  -0.034237   0.024324  -0.018804
   44  H  6  S   -0.000000  -0.000000   0.157780  -0.073657  -0.930290
   45  H  7  S   -0.000000  -0.000000  -0.034278  -0.024266  -0.018804
   46  H  7  S   -0.000000  -0.000000   0.157903   0.073392  -0.930290
   47  H  8  S   -0.000000  -0.000000   0.038183   0.017488  -0.018806
   48  H  8  S   -0.000000  -0.000000  -0.142738  -0.099846  -0.930272
   49  H  9  S   -0.000000  -0.000000  -0.003947  -0.041812  -0.018806
   50  H  9  S   -0.000000  -0.000000  -0.015162   0.173500  -0.930295
   51  H 10  S   -0.000000  -0.000000  -0.003877   0.041819  -0.018806
   52  H 10  S   -0.000000  -0.000000  -0.015453  -0.173474  -0.930295

                     21         22         23         24         25
                    0.2890     0.3477     0.3477     0.4153     0.4153
                     A          A          A          A          A   
    1  C  1  S   -0.054686  -0.000000   0.000000  -0.000000   0.000000
    2  C  1  S   -0.071399  -0.000000   0.000000  -0.000000   0.000000
    3  C  1  S    0.005807   0.000000  -0.000000   0.000000  -0.000000
    4  C  1  S    3.970395   0.000007  -0.000000   0.000000  -0.000010
    5  C  1  X    0.000001  -0.061864   0.035779   0.036144  -0.062184
    6  C  1  Y    0.000001  -0.035779  -0.061864  -0.062186  -0.036143
    7  C  1  Z   -0.000000   0.000000   0.000000   0.000000   0.000000
    8  C  1  X    0.000044   1.587386  -0.918058  -0.095275   0.163945
    9  C  1  Y    0.000025   0.918057   1.587389   0.163922   0.095288
   10  C  1  Z   -0.000000   0.000000   0.000000   0.000000   0.000000
   11  C  2  S    0.016698  -0.017638  -0.030497   0.004048   0.002353
   12  C  2  S    0.022894  -0.024990  -0.043208   0.007348   0.004271
   13  C  2  S   -0.027258   0.063637   0.110032  -0.050085  -0.029110
   14  C  2  S   -0.806184   0.211270   0.365280  -0.070876  -0.041197
   15  C  2  X    0.000001   0.174487  -0.100915  -0.282015   0.485221
   16  C  2  Y    0.018231   0.080049   0.138408   0.326531   0.189786
   17  C  2  Z   -0.000000   0.000000   0.000000   0.000000   0.000000
   18  C  2  X   -0.000010  -1.251127   0.723586  -0.268636   0.462193
   19  C  2  Y    1.251677   0.702302   1.214313  -0.552327  -0.321019
   20  C  2  Z   -0.000000   0.000000   0.000000   0.000000   0.000000
   21  C  3  S    0.016698  -0.017592   0.030523  -0.004062   0.002329
   22  C  3  S    0.022894  -0.024925   0.043245  -0.007373   0.004228
   23  C  3  S   -0.027258   0.063473  -0.110127   0.050253  -0.028819
   24  C  3  S   -0.806185   0.210725  -0.365595   0.071114  -0.040786
   25  C  3  X    0.015789   0.156464  -0.069641  -0.144133   0.406142
   26  C  3  Y   -0.009114   0.111319   0.156433   0.405605   0.327677
   27  C  3  Z   -0.000000   0.000000   0.000000   0.000000   0.000000
   28  C  3  X    1.083979  -0.019460  -1.413391   0.612909  -0.043363
   29  C  3  Y   -0.625847  -1.434686  -0.017348  -0.046767   0.560519
   30  C  3  Z   -0.000000   0.000000   0.000000   0.000000   0.000000
   31  C  4  S    0.016697   0.035230  -0.000026   0.000014  -0.004683
   32  C  4  S    0.022893   0.049914  -0.000037   0.000025  -0.008499
   33  C  4  S   -0.027258  -0.127108   0.000095  -0.000168   0.057930
   34  C  4  S   -0.806109  -0.421968   0.000315  -0.000238   0.081997
   35  C  4  X   -0.015790   0.138392  -0.100888  -0.281563   0.326267
   36  C  4  Y   -0.009116   0.080074   0.174505   0.485493   0.190248
   37  C  4  Z   -0.000000   0.000000   0.000000   0.000000   0.000000
   38  C  4  X   -1.083958   1.215377   0.721751  -0.265698  -0.554015
   39  C  4  Y   -0.625823   0.700454  -1.252201   0.463905  -0.318072
   40  C  4  Z   -0.000000   0.000000   0.000000   0.000000   0.000000
   41  H  5  S   -0.008322  -0.097078  -0.029611   0.029524   0.040046
   42  H  5  S   -0.139534  -1.264233  -0.734063  -0.488131   0.940155
   43  H  6  S   -0.008323   0.022746  -0.098912   0.049410   0.005832
   44  H  6  S   -0.139535  -0.005798  -1.461875   0.575290  -0.889504
   45  H  7  S   -0.008323   0.022894   0.098878  -0.049443   0.005545
   46  H  7  S   -0.139535  -0.003618   1.461882  -0.570125  -0.892823
   47  H  8  S   -0.008322  -0.097033   0.029756  -0.029756   0.039874
   48  H  8  S   -0.139534  -1.263137   0.735948   0.482674   0.942968
   49  H  9  S   -0.008323   0.074287   0.069155  -0.019655  -0.045706
   50  H  9  S   -0.139541   1.268913   0.725930  -1.057990  -0.053468
   51  H 10  S   -0.008323   0.074184  -0.069266   0.019919  -0.045592
   52  H 10  S   -0.139541   1.267829  -0.727821   1.058282  -0.047335

                     26         27         28         29         30
                    0.4159     0.4828     0.4828     0.4880     0.4880
                     A          A          A          A          A   
    1  C  1  S    0.000000  -0.000000   0.000000  -0.000000  -0.000000
    2  C  1  S    0.000000  -0.000000  -0.000000  -0.000000  -0.000000
    3  C  1  S    0.000000  -0.000000   0.000001  -0.000000  -0.000000
    4  C  1  S    0.000000   0.000000  -0.000003  -0.000000  -0.000000
    5  C  1  X    0.000000   0.055817  -0.095553  -0.000000  -0.000000
    6  C  1  Y    0.000000  -0.095555  -0.055816  -0.000000  -0.000000
    7  C  1  Z   -0.112421  -0.000000   0.000000   0.000002  -0.000000
    8  C  1  X    0.000000   1.029000  -1.761590  -0.000000  -0.000000
    9  C  1  Y    0.000000  -1.761576  -1.029008  -0.000000  -0.000000
   10  C  1  Z   -0.324342  -0.000000   0.000000   0.000002  -0.000000
   11  C  2  S    0.000000  -0.002482  -0.001450  -0.000000  -0.000000
   12  C  2  S    0.000000   0.000360   0.000210  -0.000000  -0.000000
   13  C  2  S    0.000000  -0.129101  -0.075411  -0.000000  -0.000000
   14  C  2  S    0.000000   2.063813   1.205547  -0.000000  -0.000000
   15  C  2  X    0.000000   0.153712  -0.263171  -0.000000  -0.000000
   16  C  2  Y    0.000000   0.127127   0.074258  -0.000000  -0.000000
   17  C  2  Z   -0.558080  -0.000000   0.000000   0.391434   0.673292
   18  C  2  X    0.000000  -1.453249   2.487871  -0.000000  -0.000000
   19  C  2  Y    0.000000   0.715925   0.418194  -0.000000  -0.000000
   20  C  2  Z    0.647030  -0.000000   0.000000  -0.549938  -0.945930
   21  C  3  S    0.000000   0.002497  -0.001425  -0.000000  -0.000000
   22  C  3  S    0.000000  -0.000362   0.000206  -0.000000  -0.000000
   23  C  3  S    0.000000   0.129859  -0.074097  -0.000000  -0.000000
   24  C  3  S    0.000000  -2.075941   1.184541  -0.000000  -0.000000
   25  C  3  X    0.000000  -0.186259  -0.069170  -0.000000  -0.000000
   26  C  3  Y    0.000000  -0.066862  -0.265734  -0.000000  -0.000000
   27  C  3  Z   -0.558080  -0.000000   0.000000   0.387380  -0.675633
   28  C  3  X    0.000000   0.090311   1.607101  -0.000000  -0.000000
   29  C  3  Y    0.000000   1.596687   1.961767  -0.000000  -0.000000
   30  C  3  Z    0.647030  -0.000000   0.000000  -0.544241   0.949219
   31  C  4  S    0.000000  -0.000015   0.002874  -0.000000  -0.000000
   32  C  4  S    0.000000   0.000002  -0.000417  -0.000000  -0.000000
   33  C  4  S    0.000000  -0.000759   0.149513  -0.000000  -0.000000
   34  C  4  S    0.000000   0.012128  -2.390088  -0.000000  -0.000000
   35  C  4  X    0.000000   0.151747   0.128273  -0.000000  -0.000000
   36  C  4  Y    0.000000  -0.264328   0.072273  -0.000000  -0.000000
   37  C  4  Z   -0.558093  -0.000000   0.000000  -0.778796   0.002341
   38  C  4  X    0.000000  -1.444231   0.710712  -0.000000  -0.000000
   39  C  4  Y    0.000000   2.493068   0.427211  -0.000000  -0.000000
   40  C  4  Z    0.647049  -0.000000   0.000000   1.094159  -0.003289
   41  H  5  S    0.000000  -0.123958   0.041043  -0.000000  -0.000000
   42  H  5  S    0.000000  -1.752965   0.686775  -0.000000  -0.000000
   43  H  6  S    0.000000  -0.025137  -0.128134  -0.000000  -0.000000
   44  H  6  S    0.000000  -0.262796  -1.864247  -0.000000  -0.000000
   45  H  7  S    0.000000   0.026436  -0.127872  -0.000000  -0.000000
   46  H  7  S    0.000000   0.281701  -1.861484  -0.000000  -0.000000
   47  H  8  S    0.000000   0.123535   0.042299  -0.000000  -0.000000
   48  H  8  S    0.000000   1.745906   0.704529  -0.000000  -0.000000
   49  H  9  S    0.000000  -0.098399   0.085836  -0.000000  -0.000000
   50  H  9  S    0.000000  -1.483065   1.159716  -0.000000  -0.000000
   51  H 10  S    0.000000   0.097523   0.086830  -0.000000  -0.000000
   52  H 10  S    0.000000   1.471220   1.174707  -0.000000  -0.000000

                     31         32         33         34         35
                    0.4952     0.6606     0.6640     0.6640     0.6904
                     A          A          A          A          A   
    1  C  1  S   -0.000000  -0.000000  -0.000002   0.000000   0.053979
    2  C  1  S   -0.000000  -0.000000  -0.000003   0.000000   0.100372
    3  C  1  S    0.000000  -0.000000   0.000018  -0.000000  -0.864427
    4  C  1  S    0.000000  -0.000000  -0.000006   0.000000   0.593282
    5  C  1  X    0.000001  -0.000000  -0.840668   0.483087  -0.000015
    6  C  1  Y   -0.000002  -0.000000  -0.483087  -0.840667  -0.000008
    7  C  1  Z   -0.000000  -1.024073   0.000000  -0.000000   0.000000
    8  C  1  X    0.000035  -0.000000   4.822795  -2.771413   0.000082
    9  C  1  Y   -0.000061  -0.000000   2.771406   4.822806   0.000047
   10  C  1  Z   -0.000000   2.473012   0.000000  -0.000000   0.000000
   11  C  2  S   -0.000000  -0.000000   0.002738   0.004765   0.055443
   12  C  2  S   -0.000000  -0.000000   0.006647   0.011570   0.099432
   13  C  2  S   -0.000003  -0.000000  -0.074166  -0.129084  -0.838784
   14  C  2  S    0.000062  -0.000000  -1.415565  -2.463329   1.312599
   15  C  2  X    0.569671  -0.000000  -0.201734   0.115927  -0.000003
   16  C  2  Y   -0.000001  -0.000000  -0.055513  -0.096607   0.073568
   17  C  2  Z   -0.000000   0.130012   0.000000  -0.000000   0.000000
   18  C  2  X    0.309018  -0.000000  -2.694233   1.548212  -0.000040
   19  C  2  Y    0.000020  -0.000000  -0.019415  -0.033772   0.248536
   20  C  2  Z   -0.000000  -0.844208   0.000000  -0.000000   0.000000
   21  C  3  S    0.000000  -0.000000   0.002757  -0.004754   0.055443
   22  C  3  S    0.000000  -0.000000   0.006694  -0.011543   0.099432
   23  C  3  S    0.000003  -0.000000  -0.074689   0.128782  -0.838784
   24  C  3  S   -0.000061  -0.000000  -1.425553   2.457563   1.312598
   25  C  3  X   -0.284835  -0.000000  -0.149045   0.025096   0.063710
   26  C  3  Y   -0.493350  -0.000000  -0.146345  -0.149294  -0.036787
   27  C  3  Z   -0.000000   0.130012   0.000000  -0.000000   0.000000
   28  C  3  X   -0.154525  -0.000000  -1.360894  -0.750389   0.215219
   29  C  3  Y   -0.267606  -0.000000  -2.318035  -1.367098  -0.124303
   30  C  3  Z   -0.000000  -0.844208   0.000000  -0.000000   0.000000
   31  C  4  S    0.000000  -0.000000  -0.005497  -0.000011   0.055443
   32  C  4  S    0.000000  -0.000000  -0.013345  -0.000027   0.099432
   33  C  4  S    0.000000  -0.000000   0.148893   0.000302  -0.838785
   34  C  4  S   -0.000001  -0.000000   2.841040   0.005766   1.312676
   35  C  4  X   -0.284826  -0.000000  -0.096734   0.116138  -0.063714
   36  C  4  Y    0.493333  -0.000000  -0.055304  -0.201610  -0.036786
   37  C  4  Z   -0.000000   0.130012   0.000000  -0.000000   0.000000
   38  C  4  X   -0.154564  -0.000000  -0.036880   1.553643  -0.215234
   39  C  4  Y    0.267712  -0.000000  -0.014011  -2.691147  -0.124264
   40  C  4  Z   -0.000000  -0.844207   0.000000  -0.000000   0.000000
   41  H  5  S   -0.016583  -0.000000  -0.049231  -0.041581  -0.165502
   42  H  5  S    0.766096  -0.000000  -1.209327   0.980180  -0.359299
   43  H  6  S    0.016579  -0.000000  -0.011132  -0.063474  -0.165502
   44  H  6  S   -0.766145  -0.000000   1.455793  -0.551303  -0.359262
   45  H  7  S   -0.016579  -0.000000  -0.011390   0.063428  -0.165502
   46  H  7  S    0.766144  -0.000000   1.453542   0.557207  -0.359262
   47  H  8  S    0.016583  -0.000000  -0.049400   0.041381  -0.165502
   48  H  8  S   -0.766096  -0.000000  -1.205337  -0.985081  -0.359300
   49  H  9  S    0.016577  -0.000000   0.060542   0.022095  -0.165501
   50  H  9  S   -0.766164  -0.000000  -0.250433   1.536420  -0.359284
   51  H 10  S   -0.016577  -0.000000   0.060631  -0.021849  -0.165500
   52  H 10  S    0.766164  -0.000000  -0.244195  -1.537424  -0.359283

                     36         37         38         39         40
                    0.6935     0.7047     0.9017     0.9017     1.1537
                     A          A          A          A          A   
    1  C  1  S   -0.000000  -0.094499  -0.000000   0.000000   0.110535
    2  C  1  S   -0.000000  -0.135475  -0.000000   0.000000   0.200161
    3  C  1  S    0.000000   0.401187  -0.000000  -0.000000  -1.979618
    4  C  1  S   -0.000000   1.355979   0.000012  -0.000000   6.751520
    5  C  1  X    0.000002   0.000002   0.644608  -0.370771  -0.000000
    6  C  1  Y   -0.000004   0.000001   0.370770   0.644608  -0.000000
    7  C  1  Z   -0.000000  -0.000000  -0.000000  -0.000000   0.000000
    8  C  1  X   -0.000015  -0.000053   3.719228  -2.139253  -0.000076
    9  C  1  Y    0.000027  -0.000030   2.139253   3.719228  -0.000043
   10  C  1  Z   -0.000000  -0.000000  -0.000000  -0.000000   0.000000
   11  C  2  S   -0.000000   0.036345   0.027975   0.048635  -0.057149
   12  C  2  S   -0.000000   0.053065   0.043579   0.075764  -0.095424
   13  C  2  S   -0.000000  -0.166205  -0.213375  -0.370961   0.788337
   14  C  2  S   -0.000015  -0.763235  -1.280213  -2.225728  -3.189527
   15  C  2  X   -0.077835   0.000004  -0.334400   0.192343   0.000003
   16  C  2  Y   -0.000001   0.673005   0.417690   0.726176   0.282557
   17  C  2  Z   -0.000000  -0.000000  -0.000000  -0.000000   0.000000
   18  C  2  X    5.113810   0.000034  -2.635291   1.515787   0.000028
   19  C  2  Y   -0.000000  -0.220445  -0.068849  -0.119697   0.537521
   20  C  2  Z   -0.000000  -0.000000  -0.000000  -0.000000   0.000000
   21  C  3  S    0.000000   0.036345   0.028132  -0.048544  -0.057149
   22  C  3  S   -0.000000   0.053065   0.043825  -0.075622  -0.095424
   23  C  3  S    0.000000  -0.166205  -0.214578   0.370266   0.788336
   24  C  3  S    0.000014  -0.763235  -1.287434   2.221559  -3.189526
   25  C  3  X    0.038918   0.582841   0.196884  -0.724423   0.244703
   26  C  3  Y    0.067406  -0.336499  -0.499080   0.194895  -0.141276
   27  C  3  Z   -0.000000  -0.000000  -0.000000  -0.000000   0.000000
   28  C  3  X   -2.556905  -0.190895  -1.375139  -0.658702   0.465520
   29  C  3  Y   -4.428690   0.110252  -2.243336  -1.379851  -0.268736
   30  C  3  Z   -0.000000  -0.000000  -0.000000  -0.000000   0.000000
   31  C  4  S   -0.000000   0.036345  -0.056106  -0.000091  -0.057151
   32  C  4  S   -0.000000   0.053066  -0.087402  -0.000142  -0.095428
   33  C  4  S    0.000000  -0.166209   0.427947   0.000695   0.788378
   34  C  4  S    0.000000  -0.763288   2.567637   0.004169  -3.189685
   35  C  4  X    0.038918  -0.582843   0.725179   0.194062  -0.244709
   36  C  4  Y   -0.067408  -0.336504   0.419405  -0.333406  -0.141283
   37  C  4  Z   -0.000000  -0.000000  -0.000000  -0.000000   0.000000
   38  C  4  X   -2.556890   0.190912  -0.122054   1.519864  -0.465525
   39  C  4  Y    4.428663   0.110223  -0.064768  -2.632930  -0.268771
   40  C  4  Z   -0.000000  -0.000000  -0.000000  -0.000000   0.000000
   41  H  5  S    0.076965   0.095324   0.113055   0.001603  -0.131429
   42  H  5  S    2.693404   0.084055  -1.580258   1.095796   0.612090
   43  H  6  S   -0.076966   0.095324  -0.055460   0.098530  -0.131430
   44  H  6  S   -2.693400   0.084016   1.741772  -0.814994   0.612066
   45  H  7  S    0.076966   0.095324  -0.055139  -0.098710  -0.131430
   46  H  7  S    2.693400   0.084016   1.739117   0.820646   0.612066
   47  H  8  S   -0.076965   0.095324   0.113060  -0.001236  -0.131429
   48  H  8  S   -2.693404   0.084055  -1.576691  -1.100922   0.612089
   49  H  9  S   -0.076965   0.095324  -0.057599  -0.097294  -0.131433
   50  H  9  S   -2.693386   0.084041  -0.165082   1.915911   0.612096
   51  H 10  S    0.076965   0.095324  -0.057915   0.097107  -0.131433
   52  H 10  S    2.693386   0.084041  -0.158859  -1.916437   0.612096

                     41         42         43         44         45
                    1.2080     1.2080     1.3073     1.4635     1.4635
                     A          A          A          A          A   
    1  C  1  S    0.000002  -0.000000   0.070755   0.000000  -0.000000
    2  C  1  S    0.000003  -0.000000   0.128981   0.000000  -0.000000
    3  C  1  S   -0.000032   0.000000  -1.269018  -0.000004   0.000000
    4  C  1  S    0.000105  -0.000001   3.202991   0.000009  -0.000000
    5  C  1  X   -0.014768   0.008538   0.000000  -0.054330   0.031591
    6  C  1  Y   -0.008539  -0.014767   0.000000  -0.031592  -0.054328
    7  C  1  Z    0.000000  -0.000000  -0.000000  -0.000000  -0.000000
    8  C  1  X    5.484475  -3.171113  -0.000034   1.789252  -1.040396
    9  C  1  Y    3.171118   5.484467  -0.000019   1.040425   1.789202
   10  C  1  Z    0.000000  -0.000000  -0.000000  -0.000000  -0.000000
   11  C  2  S   -0.059959  -0.103699   0.028823   0.005634   0.009688
   12  C  2  S   -0.107533  -0.185977   0.045291   0.003273   0.005629
   13  C  2  S    1.023248   1.769697  -0.232441   0.152996   0.263107
   14  C  2  S   -3.804179  -6.579275  -0.155570  -0.670185  -1.152501
   15  C  2  X   -0.248422   0.143637   0.000002  -0.315746   0.183602
   16  C  2  Y    0.197013   0.340731  -0.206978  -0.100008  -0.171985
   17  C  2  Z    0.000000  -0.000000  -0.000000  -0.000000  -0.000000
   18  C  2  X   -1.924683   1.112847   0.000008   0.428818  -0.249361
   19  C  2  Y    0.553262   0.956855   0.669616   0.847172   1.456893
   20  C  2  Z    0.000000  -0.000000  -0.000000  -0.000000  -0.000000
   21  C  3  S   -0.059827   0.103775   0.028823   0.005573  -0.009723
   22  C  3  S   -0.107296   0.186113   0.045291   0.003238  -0.005649
   23  C  3  S    1.020995  -1.770998  -0.232442   0.151364  -0.264049
   24  C  3  S   -3.795804   6.584111  -0.155570  -0.663035   1.156629
   25  C  3  X    0.045941  -0.366959  -0.179247  -0.244124   0.058655
   26  C  3  Y   -0.313588   0.046371   0.103491  -0.224953  -0.243609
   27  C  3  Z    0.000000  -0.000000  -0.000000  -0.000000  -0.000000
   28  C  3  X   -0.484965  -1.384469   0.579908   0.941022  -1.142875
   29  C  3  Y   -1.944072  -0.482853  -0.334801  -0.046370   0.944705
   30  C  3  Z    0.000000  -0.000000  -0.000000  -0.000000  -0.000000
   31  C  4  S    0.119784  -0.000076   0.028823  -0.011207   0.000035
   32  C  4  S    0.214825  -0.000137   0.045290  -0.006511   0.000020
   33  C  4  S   -2.044210   0.001301  -0.232426  -0.304364   0.000942
   34  C  4  S    7.599846  -0.004835  -0.155631   1.333223  -0.004128
   35  C  4  X    0.340945   0.143262   0.179247  -0.171726   0.183158
   36  C  4  Y    0.196634  -0.248638   0.103488  -0.100452  -0.316007
   37  C  4  Z    0.000000  -0.000000  -0.000000  -0.000000  -0.000000
   38  C  4  X    0.957905   1.111011  -0.579921   1.458744  -0.252562
   39  C  4  Y    0.551413  -1.925733  -0.334818   0.843979   0.427015
   40  C  4  Z    0.000000  -0.000000  -0.000000  -0.000000  -0.000000
   41  H  5  S   -0.138443  -0.065739   0.533084   0.067363   0.891687
   42  H  5  S   -0.341439   1.111809  -0.596842  -0.055718  -1.577298
   43  H  6  S    0.012096  -0.152780   0.533082   0.741654   0.499592
   44  H  6  S    1.133917   0.258763  -0.596846  -1.343278  -0.828586
   45  H  7  S    0.012290   0.152765   0.533082   0.738546  -0.504174
   46  H  7  S    1.133587  -0.260205  -0.596845  -1.338121   0.836888
   47  H  8  S   -0.138359   0.065915   0.533084   0.061841  -0.892087
   48  H  8  S   -0.342854  -1.111374  -0.596842  -0.045951   1.577612
   49  H  9  S    0.126265   0.086867   0.533088  -0.803487   0.392501
   50  H  9  S   -0.791045   0.852606  -0.596849   1.389220  -0.749045
   51  H 10  S    0.126155  -0.087028   0.533088  -0.805902  -0.387518
   52  H 10  S   -0.792129  -0.851599  -0.596849   1.393831   0.740429

                     46         47         48         49         50
                    1.5648     1.5648     1.5828    23.7096    23.9915
                     A          A          A          A          A   
    1  C  1  S   -0.000000   0.000000  -0.000000  -1.114813   0.000038
    2  C  1  S   -0.000000   0.000000  -0.000000   1.209451  -0.000042
    3  C  1  S    0.000000  -0.000001   0.000000  -0.265263   0.000011
    4  C  1  S   -0.000000   0.000004  -0.000000   0.306722  -0.000020
    5  C  1  X    0.133961  -0.226999   0.000006  -0.000000  -0.036655
    6  C  1  Y   -0.227000  -0.133961  -0.000010  -0.000000  -0.021309
    7  C  1  Z    0.000000   0.000000   0.000000   0.000000  -0.000000
    8  C  1  X   -2.265305   3.838589  -0.000095   0.000005   0.639331
    9  C  1  Y    3.838612   2.265291   0.000162   0.000003   0.371657
   10  C  1  Z    0.000000   0.000000   0.000000   0.000000  -0.000000
   11  C  2  S   -0.020288  -0.011973  -0.000001  -0.787863   0.723533
   12  C  2  S   -0.039582  -0.023359  -0.000002   0.853499  -0.795606
   13  C  2  S    0.522007   0.308053   0.000021  -0.155314   0.225037
   14  C  2  S   -2.789080  -1.645929  -0.000117   0.093598  -0.490214
   15  C  2  X   -0.182119   0.308636  -0.369784  -0.000000  -0.006619
   16  C  2  Y   -0.080901  -0.047742  -0.000003  -0.015747   0.006836
   17  C  2  Z    0.000000   0.000000   0.000000   0.000000  -0.000000
   18  C  2  X    1.534860  -2.601088   3.013507  -0.000002  -0.216863
   19  C  2  Y    0.955564   0.563905   0.000038   0.064657   0.095661
   20  C  2  Z    0.000000   0.000000   0.000000   0.000000  -0.000000
   21  C  3  S    0.020512  -0.011583   0.000001  -0.787863   0.716116
   22  C  3  S    0.040020  -0.022600   0.000002   0.853499  -0.787451
   23  C  3  S   -0.527787   0.298041  -0.000022  -0.155314   0.222731
   24  C  3  S    2.819964  -1.592436   0.000117   0.093598  -0.485189
   25  C  3  X    0.158938   0.116024   0.184895  -0.013638   0.002539
   26  C  3  Y    0.111694   0.293341   0.320240   0.007874  -0.009135
   27  C  3  Z    0.000000   0.000000   0.000000   0.000000  -0.000000
   28  C  3  X   -1.579193  -0.842460  -1.506786   0.055993  -0.026809
   29  C  3  Y   -0.802952  -2.550339  -2.609754  -0.032330  -0.235795
   30  C  3  Z    0.000000   0.000000   0.000000   0.000000  -0.000000
   31  C  4  S   -0.000225   0.023556  -0.000000  -0.787879  -1.439673
   32  C  4  S   -0.000438   0.045958  -0.000000   0.853517   1.583083
   33  C  4  S    0.005780  -0.606093   0.000000  -0.155319  -0.447776
   34  C  4  S   -0.030884   3.238361  -0.000001   0.093609   0.975425
   35  C  4  X   -0.178408  -0.083056   0.184879   0.013638   0.011791
   36  C  4  Y    0.310803  -0.044006  -0.320219   0.007874   0.006781
   37  C  4  Z    0.000000   0.000000   0.000000   0.000000  -0.000000
   38  C  4  X    1.500956   0.975240  -1.506654  -0.055992   0.165220
   39  C  4  Y   -2.620894   0.529796   2.609600  -0.032327   0.094528
   40  C  4  Z    0.000000   0.000000   0.000000   0.000000  -0.000000
   41  H  5  S   -0.077659   0.913079  -0.661091   0.025780   0.003314
   42  H  5  S    0.848336  -2.265723   2.246982  -0.061456  -0.058499
   43  H  6  S    0.761729  -0.509391   0.661118   0.025780  -0.013528
   44  H  6  S   -1.573195   1.837971  -2.247008  -0.061454   0.129838
   45  H  7  S   -0.751876  -0.523826  -0.661117   0.025780  -0.013505
   46  H  7  S    1.537855   1.867641   2.247008  -0.061454   0.129797
   47  H  8  S    0.060231   0.914394   0.661090   0.025780   0.003395
   48  H  8  S   -0.804970  -2.281491  -2.246981  -0.061456  -0.059189
   49  H  9  S   -0.822048  -0.405002   0.661047   0.025780   0.010133
   50  H  9  S    2.378467   0.443522  -2.246835  -0.061456  -0.070651
   51  H 10  S    0.829623  -0.389250  -0.661047   0.025780   0.010191
   52  H 10  S   -2.386493   0.398080   2.246834  -0.061456  -0.071299

                     51         52
                   23.9915    24.0719
                     A          A   
    1  C  1  S   -0.000000  -1.365728
    2  C  1  S    0.000000   1.509140
    3  C  1  S   -0.000000  -0.433741
    4  C  1  S    0.000000   0.836910
    5  C  1  X    0.021309  -0.000001
    6  C  1  Y   -0.036655  -0.000000
    7  C  1  Z   -0.000000   0.000000
    8  C  1  X   -0.371657   0.000014
    9  C  1  Y    0.639331   0.000008
   10  C  1  Z   -0.000000   0.000000
   11  C  2  S    1.244645   0.643789
   12  C  2  S   -1.368628  -0.710372
   13  C  2  S    0.387117   0.179579
   14  C  2  S   -0.843286  -0.366303
   15  C  2  X    0.003848  -0.000000
   16  C  2  Y    0.011759  -0.008249
   17  C  2  Z   -0.000000   0.000000
   18  C  2  X    0.126067  -0.000005
   19  C  2  Y    0.164562   0.084955
   20  C  2  Z   -0.000000   0.000000
   21  C  3  S   -1.248927   0.643789
   22  C  3  S    1.373336  -0.710372
   23  C  3  S   -0.388449   0.179579
   24  C  3  S    0.846187  -0.366303
   25  C  3  X   -0.012123  -0.007144
   26  C  3  Y    0.002602   0.004124
   27  C  3  Z   -0.000000   0.000000
   28  C  3  X   -0.205392   0.073571
   29  C  3  Y   -0.025495  -0.042481
   30  C  3  Z   -0.000000   0.000000
   31  C  4  S    0.004282   0.643742
   32  C  4  S   -0.004708  -0.710321
   33  C  4  S    0.001332   0.179565
   34  C  4  S   -0.002901  -0.366271
   35  C  4  X    0.003793   0.007144
   36  C  4  Y   -0.006651   0.004125
   37  C  4  Z   -0.000000   0.000000
   38  C  4  X    0.124931  -0.073568
   39  C  4  Y   -0.217519  -0.042474
   40  C  4  Z   -0.000000   0.000000
   41  H  5  S   -0.013681  -0.005815
   42  H  5  S    0.116103   0.049816
   43  H  6  S   -0.003890  -0.005816
   44  H  6  S    0.006618   0.049820
   45  H  7  S    0.003970  -0.005816
   46  H  7  S   -0.007390   0.049820
   47  H  8  S    0.013661  -0.005815
   48  H  8  S   -0.115753   0.049816
   49  H  9  S   -0.009771  -0.005815
   50  H  9  S    0.109135   0.049816
   51  H 10  S    0.009710  -0.005815
   52  H 10  S   -0.108713   0.049816
 ...... END OF ROHF CALCULATION ......
 STEP CPU TIME =     0.08 TOTAL CPU TIME =        0.3 (    0.0 MIN)
 TOTAL WALL CLOCK TIME=        0.3 SECONDS, CPU UTILIZATION IS  93.75%

     ----------------------------------------------------------------
     PROPERTY VALUES FOR THE ROHF  SELF-CONSISTENT FIELD WAVEFUNCTION
     ----------------------------------------------------------------

          -----------------
          ENERGY COMPONENTS
          -----------------

         WAVEFUNCTION NORMALIZATION =       1.0000000000

                ONE ELECTRON ENERGY =    -414.4507142353
                TWO ELECTRON ENERGY =     154.9531705974
           NUCLEAR REPULSION ENERGY =     104.6690029318
                                      ------------------
                       TOTAL ENERGY =    -154.8285407061

 ELECTRON-ELECTRON POTENTIAL ENERGY =     154.9531705974
  NUCLEUS-ELECTRON POTENTIAL ENERGY =    -569.1731560318
   NUCLEUS-NUCLEUS POTENTIAL ENERGY =     104.6690029318
                                      ------------------
             TOTAL POTENTIAL ENERGY =    -309.5509825026
               TOTAL KINETIC ENERGY =     154.7224417966
                 VIRIAL RATIO (V/T) =       2.0006857370

  ...... PI ENERGY ANALYSIS ......

 ENERGY ANALYSIS:
            FOCK ENERGY=   -104.5443595415
          BARE H ENERGY=   -414.4507142353
     ELECTRONIC ENERGY =   -259.4975368884
         KINETIC ENERGY=    154.7224417966
          N-N REPULSION=    104.6690029318
           TOTAL ENERGY=   -154.8285339566
        SIGMA PART(1+2)=   -239.5551114398
               (K,V1,2)=    150.5863013567   -526.6699605177    136.5285477211
           PI PART(1+2)=    -19.9424254486
               (K,V1,2)=      4.1361404398    -42.5031955141     18.4246296257
  SIGMA SKELETON, ERROR=   -134.8861085080     -0.0000000000
             MIXED PART= 0.00000E+00 0.00000E+00 0.00000E+00 0.00000E+00
 ...... END OF PI ENERGY ANALYSIS ......

          ---------------------------------------
          MULLIKEN AND LOWDIN POPULATION ANALYSES
          ---------------------------------------

     ATOMIC MULLIKEN POPULATION IN EACH MOLECULAR ORBITAL

                      1          2          3          4          5

                  2.000000   2.000000   2.000000   2.000000   2.000000

    1             1.998755   0.000868   0.000299   0.000273   0.890748
    2             0.000418   0.463618   0.543986   0.991899   0.350893
    3             0.000418   0.461282   0.530392   1.007829   0.350893
    4             0.000418   1.074178   0.925323   0.000002   0.350901
    5            -0.000001   0.000010  -0.000009   0.000007   0.009427
    6            -0.000001   0.000006   0.000012  -0.000009   0.009428
    7            -0.000001   0.000006   0.000012  -0.000009   0.009428
    8            -0.000001   0.000010  -0.000009   0.000007   0.009427
    9            -0.000001   0.000011  -0.000003   0.000000   0.009428
   10            -0.000001   0.000011  -0.000003   0.000000   0.009428

                      6          7          8          9         10

                  2.000000   2.000000   2.000000   2.000000   2.000000

    1             0.046900   0.046901   0.235898   0.204603   0.204612
    2             0.306055   0.746596   0.362868   0.343940   0.458248
    3             0.301422   0.751229   0.362868   0.343290   0.458897
    4             0.971500   0.081151   0.362873   0.516061   0.286145
    5             0.022522   0.102186   0.112581   0.001085   0.196284
    6             0.039554   0.085153   0.112583   0.161274   0.036089
    7             0.038837   0.085870   0.112583   0.160774   0.036588
    8             0.021922   0.102786   0.112581   0.001187   0.196182
    9             0.125586  -0.000877   0.112583   0.133592   0.063779
   10             0.125703  -0.000995   0.112583   0.134194   0.063177

                     11         12         13         14         15

                  2.000000   2.000000   2.000000   2.000000   1.000000

    1             0.000000   0.385654   0.385663   0.994141   0.000000
    2             0.346113   0.286377   0.381492   0.335287   0.168483
    3             0.346113   0.284855   0.383015   0.335287   0.164858
    4             0.346129   0.430551   0.237274   0.335286   0.666660
    5             0.160263   0.046911   0.157287   0.000000   0.000000
    6             0.160278   0.204105   0.000084   0.000000   0.000000
    7             0.160278   0.204033   0.000155   0.000000   0.000000
    8             0.160263   0.048482   0.155716   0.000000   0.000000
    9             0.160281   0.053695   0.150478   0.000000   0.000000
   10             0.160281   0.055338   0.148835   0.000000   0.000000

                     16

                  1.000000

    1             0.000000
    2             0.498184
    3             0.501809
    4             0.000007
    5             0.000000
    6             0.000000
    7             0.000000
    8             0.000000
    9             0.000000
   10             0.000000

     ATOMIC SPIN POPULATION (ALPHA MINUS BETA)
       ATOM         MULL.POP.                    LOW.POP.
    1 CARBON        0.000000                     0.000000
    2 CARBON        0.666667                     0.666667
    3 CARBON        0.666667                     0.666667
    4 CARBON        0.666667                     0.666667
    5 HYDROGEN      0.000000                     0.000000
    6 HYDROGEN      0.000000                     0.000000
    7 HYDROGEN      0.000000                     0.000000
    8 HYDROGEN      0.000000                     0.000000
    9 HYDROGEN      0.000000                     0.000000
   10 HYDROGEN      0.000000                     0.000000

               ----- POPULATIONS IN EACH AO -----
                             MULLIKEN      LOWDIN
              1  C  1  S      1.17443     1.09060
              2  C  1  S      0.81959     0.88451
              3  C  1  S      0.74491     0.56890
              4  C  1  S      0.38736     0.36101
              5  C  1  X      0.91903     0.85751
              6  C  1  Y      0.91903     0.85751
              7  C  1  Z      0.69059     0.60380
              8  C  1  X     -0.28159     0.26108
              9  C  1  Y     -0.28159     0.26108
             10  C  1  Z      0.30355     0.35768
             11  C  2  S      1.17436     1.09049
             12  C  2  S      0.81968     0.88469
             13  C  2  S      0.72551     0.59788
             14  C  2  S      0.71592     0.43190
             15  C  2  X      0.93474     0.81687
             16  C  2  Y      0.90147     0.82992
             17  C  2  Z      0.69124     0.65223
             18  C  2  X      0.24585     0.29910
             19  C  2  Y      0.06498     0.25425
             20  C  2  Z      0.31071     0.36061
             21  C  3  S      1.17436     1.09049
             22  C  3  S      0.81968     0.88469
             23  C  3  S      0.72551     0.59788
             24  C  3  S      0.71592     0.43190
             25  C  3  X      0.90978     0.82666
             26  C  3  Y      0.92642     0.82013
             27  C  3  Z      0.69124     0.65223
             28  C  3  X      0.11020     0.26546
             29  C  3  Y      0.20064     0.28789
             30  C  3  Z      0.31071     0.36061
             31  C  4  S      1.17436     1.09049
             32  C  4  S      0.81968     0.88469
             33  C  4  S      0.72551     0.59788
             34  C  4  S      0.71592     0.43190
             35  C  4  X      0.90978     0.82666
             36  C  4  Y      0.92642     0.82013
             37  C  4  Z      0.69124     0.65223
             38  C  4  X      0.11020     0.26546
             39  C  4  Y      0.20064     0.28789
             40  C  4  Z      0.31071     0.36061
             41  H  5  S      0.51865     0.50125
             42  H  5  S      0.28991     0.37249
             43  H  6  S      0.51865     0.50125
             44  H  6  S      0.28991     0.37249
             45  H  7  S      0.51865     0.50125
             46  H  7  S      0.28991     0.37249
             47  H  8  S      0.51865     0.50125
             48  H  8  S      0.28991     0.37249
             49  H  9  S      0.51865     0.50125
             50  H  9  S      0.28991     0.37249
             51  H 10  S      0.51865     0.50125
             52  H 10  S      0.28991     0.37249

          ----- MULLIKEN ATOMIC OVERLAP POPULATIONS -----
          (OFF-DIAGONAL ELEMENTS NEED TO BE MULTIPLIED BY 2)

             1           2           3           4           5

    1    4.5044842
    2    0.3709073   5.6082874
    3    0.3709073  -0.0763529   5.6082875
    4    0.3709073  -0.0763529  -0.0763529   5.6082874
    5   -0.0369813   0.3813386   0.0049845  -0.0073400   0.4884346
    6   -0.0369813   0.3813386  -0.0073400   0.0049845  -0.0231917
    7   -0.0369814  -0.0073400   0.3813386   0.0049845   0.0000740
    8   -0.0369813   0.0049845   0.3813386  -0.0073400  -0.0000645
    9   -0.0369813  -0.0073400   0.0049845   0.3813386   0.0012246
   10   -0.0369813   0.0049845  -0.0073400   0.3813386   0.0000740

             6           7           8           9          10

    6    0.4884346
    7    0.0012246   0.4884346
    8    0.0000740  -0.0231917   0.4884346
    9    0.0000740  -0.0000645   0.0000740   0.4884346
   10   -0.0000645   0.0000740   0.0012246  -0.0231917   0.4884346

          TOTAL MULLIKEN AND LOWDIN ATOMIC POPULATIONS
       ATOM         MULL.POP.    CHARGE          LOW.POP.     CHARGE
    1 CARBON        5.395318    0.604682         6.103681   -0.103681
    2 CARBON        6.584455   -0.584455         6.217949   -0.217949
    3 CARBON        6.584455   -0.584455         6.217949   -0.217949
    4 CARBON        6.584455   -0.584455         6.217949   -0.217949
    5 HYDROGEN      0.808553    0.191447         0.873746    0.126254
    6 HYDROGEN      0.808553    0.191447         0.873746    0.126254
    7 HYDROGEN      0.808553    0.191447         0.873746    0.126254
    8 HYDROGEN      0.808553    0.191447         0.873746    0.126254
    9 HYDROGEN      0.808553    0.191447         0.873746    0.126254
   10 HYDROGEN      0.808553    0.191447         0.873746    0.126254

          -------------------------------
          BOND ORDER AND VALENCE ANALYSIS     BOND ORDER THRESHOLD=0.050
          -------------------------------

                   BOND                       BOND                       BOND
  ATOM PAIR DIST  ORDER      ATOM PAIR DIST  ORDER      ATOM PAIR DIST  ORDER
    1   2  1.428  1.103        1   3  1.428  1.103        1   4  1.428  1.103
    2   3  2.473  0.111        2   4  2.473  0.111        2   5  1.081  0.957
    2   6  1.081  0.957        3   4  2.473  0.111        3   7  1.081  0.957
    3   8  1.081  0.957        4   9  1.081  0.957        4  10  1.081  0.957

                       TOTAL       BONDED        FREE
      ATOM            VALENCE     VALENCE     VALENCE
    1 CARBON            3.112       3.112       0.000
    2 CARBON            3.703       3.259       0.444
    3 CARBON            3.703       3.259       0.444
    4 CARBON            3.703       3.259       0.444
[...]
  12  2  C     s   0.00000   0.00000   0.00000
  13  2  C     s   0.00000   0.00000   0.00000
  14  2  C     s   0.00000   0.00000   0.00000
  15  2  C     x   0.00000   0.00000   0.00000
  16  2  C     y   0.00000   0.00000   0.00000
  17  2  C     z  -0.00000   0.00000   0.00000
  18  2  C     x   0.00000   0.00000   0.00000
  19  2  C     y   0.00000   0.00000   0.00000
  20  2  C     z   1.00000  -0.00000   0.00000
  21  3  C     s   0.00000   0.00000   0.00000
  22  3  C     s   0.00000   0.00000   0.00000
  23  3  C     s   0.00000   0.00000   0.00000
  24  3  C     s   0.00000   0.00000   0.00000
  25  3  C     x   0.00000   0.00000   0.00000
  26  3  C     y   0.00000   0.00000   0.00000
  27  3  C     z  -0.00000  -0.00000  -0.00000
  28  3  C     x   0.00000   0.00000   0.00000
  29  3  C     y   0.00000   0.00000   0.00000
  30  3  C     z   0.00000   1.00000   0.00000
  31  4  C     s   0.00000   0.00000   0.00000
  32  4  C     s   0.00000   0.00000   0.00000
  33  4  C     s   0.00000   0.00000   0.00000
  34  4  C     s   0.00000   0.00000   0.00000
  35  4  C     x   0.00000   0.00000   0.00000
  36  4  C     y   0.00000   0.00000   0.00000
  37  4  C     z   0.00000   0.00000   0.00000
  38  4  C     x   0.00000   0.00000   0.00000
  39  4  C     y   0.00000   0.00000   0.00000
  40  4  C     z   0.00000   0.00000   1.00000
  41  5  H     s   0.00000   0.00000   0.00000
  42  5  H     s   0.00000   0.00000   0.00000
  43  6  H     s   0.00000   0.00000   0.00000
  44  6  H     s   0.00000   0.00000   0.00000
  45  7  H     s   0.00000   0.00000   0.00000
  46  7  H     s   0.00000   0.00000   0.00000
  47  8  H     s   0.00000   0.00000   0.00000
  48  8  H     s   0.00000   0.00000   0.00000
  49  9  H     s   0.00000   0.00000   0.00000
  50  9  H     s   0.00000   0.00000   0.00000
  51 10  H     s   0.00000   0.00000   0.00000
  52 10  H     s   0.00000   0.00000   0.00000


 DENSITY CUBE FILE HEADERS

  TMM TRIPLET                            
 SCF Molecular Orbitals
 -10  -10.121931   -9.391806   -6.000000
  40    0.519073    0.000000    0.000000
  40    0.000000    0.490754    0.000000
  40    0.000000    0.000000    0.307692
   6    6.000000    0.000000    0.000000    0.000000
   6    6.000000    0.000000    2.698529    0.000000
   6    6.000000    2.336994   -1.349264    0.000000
   6    6.000000   -2.336994   -1.349264    0.000000
   1    1.000000   -1.752850    3.747588    0.000000
   1    1.000000    1.752850    3.747588    0.000000
   1    1.000000    4.121931   -0.355781    0.000000
   1    1.000000    2.369081   -3.391806    0.000000
   1    1.000000   -4.121931   -0.355781    0.000000
   1    1.000000   -2.369081   -3.391806    0.000000
   1   1

 SPIN DENSITY CUBE

 NORMALIZATION FROM DENSITY IS:     1.999940 FOR   2 ELECTRONS
 SPIN DENSITY FILE CREATED AS exam-vb20-dens-spin.cube                                        

 DENSITY CUBE FOR GROUP 2

 NORMALIZATION FROM DENSITY IS:     3.999091 FOR   4 ELECTRONS
 DENSITY FILE FOR GROUP   2 CREATED AS exam-vb20-dens-002.cube                                         

 TIME FOR DENSITY CUBES =   0.710

 CALCULATION OF POSITION AND EXTENT OF VB ORBITALS

 DEFAULT CENTROIDS AND EXTENTS.

 MOLECULAR GEOMETRY ABOUT CENTER OF MASS

  Atom#   ATOMIC NO.     X        Y        Z
    1         6       -0.0000  -0.0000   0.0000
    2         6       -0.0000   1.4280   0.0000
    3         6        1.2367  -0.7140   0.0000
    4         6       -1.2367  -0.7140   0.0000
    5         1       -0.9276   1.9831   0.0000
    6         1        0.9276   1.9831   0.0000
    7         1        2.1812  -0.1883   0.0000
    8         1        1.2537  -1.7949   0.0000
    9         1       -2.1812  -0.1883   0.0000
   10         1       -1.2537  -1.7949   0.0000

 CENTROIDS OF CHARGE FOR EACH VB GROUP & DISTANCES FROM 5 ATOMS

                                                  DISTANCES FROM ATOMS
 Orbital#   Group#       X        Y        Z        1        2        3        4        5

   14         2        0.0000   0.0000   0.0000   0.0000   1.4280   1.4280   1.4280   2.1893
   15         2       -0.0000   1.3642   0.0000   1.3642   0.0638   2.4183   2.4183   1.1151
   16         2        1.1814  -0.6821   0.0000   1.3642   2.4183   0.0638   2.4183   3.3988
   17         2       -1.1814  -0.6821   0.0000   1.3642   2.4183   2.4183   0.0638   2.6773
   18         2        0.0000  -0.0000   0.0000   0.0000   1.4280   1.4280   1.4280   2.1893
   19         2        0.0000   1.4280   0.0000   1.4280   0.0000   2.4734   2.4734   1.0810
   20         2        1.2367  -0.7140   0.0000   1.4280   2.4734   0.0000   2.4734   3.4581
   21         2       -1.2367  -0.7140   0.0000   1.4280   2.4734   2.4734   0.0000   2.7148

 EXTENT OF ORBITAL MEASURED BY (<R**2>)

 Orbital#   Group#     <X**2>   <Y**2>   <Z**2>   <R**2> Sqrt<R**2>

   14         2        0.3594   0.3594   0.6851   1.4040   1.1849
   15         2        0.2398   0.3352   0.6792   1.2542   1.1199
   16         2        0.3113   0.2637   0.6792   1.2542   1.1199
   17         2        0.3113   0.2637   0.6792   1.2542   1.1199
   18         2        0.6109   0.6109   1.8326   3.0544   1.7477
   19         2        0.6109   0.6109   1.8326   3.0544   1.7477
   20         2        0.6109   0.6109   1.8326   3.0544   1.7477
   21         2        0.6109   0.6109   1.8326   3.0544   1.7477

 WORDS OF DYNAMIC MEMORY USED IN VB2000 CODE ONLY:      102207
 NOTE THAT THIS IS IN ADDITION TO MEMORY USED BY GAMESS
 PRINTED NEAR END OF OUTPUT. ADD THE TWO AMOUNTS TO GIVE
 THE TOTAL MEMORY USED BY THE JOB

 STATISTICS OF CPU TIMES (SECONDS)
 CPU TIME FOR INITIALIZATION        0.400
 CPU TIME FOR MACROITERATION        2.960
 TOTAL CPU TIME                     3.360

 STEP CPU TIME =     3.42 TOTAL CPU TIME =        3.7 (    0.1 MIN)
 TOTAL WALL CLOCK TIME=        3.8 SECONDS, CPU UTILIZATION IS  98.94%

 **************************************************************
 *                                                            *
 *                  ENDING GAMESS(US) VB2000                  *
 *                                                            *
 *  Properties for individual molecular orbitals are correct  *
 *   only for VB modified orbitals in a Hartree-Fock group.   *
 *                                                            *
 **************************************************************

     ----------------------------------
     PROPERTIES FOR THE VB WAVEFUNCTION
     ----------------------------------

          -----------------
          ENERGY COMPONENTS
          -----------------

         WAVEFUNCTION NORMALIZATION =       1.0000000000

                ONE ELECTRON ENERGY =    -414.6108480099
                TWO ELECTRON ENERGY =     155.0725510658
           NUCLEAR REPULSION ENERGY =     104.6690029318
                                      ------------------
                       TOTAL ENERGY =    -154.8692940124

 ELECTRON-ELECTRON POTENTIAL ENERGY =     155.0725510658
  NUCLEUS-ELECTRON POTENTIAL ENERGY =    -569.4950968127
   NUCLEUS-NUCLEUS POTENTIAL ENERGY =     104.6690029318
                                      ------------------
             TOTAL POTENTIAL ENERGY =    -309.7535428152
               TOTAL KINETIC ENERGY =     154.8842488028
                 VIRIAL RATIO (V/T) =       1.9999034454

          ---------------------------------------
          MULLIKEN AND LOWDIN POPULATION ANALYSES
          ---------------------------------------

     ATOMIC MULLIKEN POPULATION IN EACH MOLECULAR ORBITAL

                      1          2          3          4          5

                  2.000000   2.000000   2.000000   2.000000   2.000000

    1             2.002352   0.000383   0.000383   0.000383   0.933232
    2            -0.000800  -0.000015   2.000794  -0.000015  -0.037134
    3            -0.000800   2.000794  -0.000015  -0.000015  -0.037134
    4            -0.000800  -0.000015  -0.000015   2.000794   1.157979
    5             0.000008   0.000007  -0.000576  -0.000005  -0.003402
    6             0.000008  -0.000005  -0.000576   0.000007   0.006188
    7             0.000008  -0.000576  -0.000005   0.000007   0.006188
    8             0.000008  -0.000576   0.000007  -0.000005  -0.003402
    9             0.000008   0.000007  -0.000005  -0.000576  -0.011258
   10             0.000008  -0.000005   0.000007  -0.000576  -0.011258

                      6          7          8          9         10

                  2.000000   2.000000   2.000000   2.000000   2.000000

    1             0.933233   0.933232  -0.068335  -0.068335  -0.068335
    2            -0.037134   1.157979   0.000345   0.008310   1.237105
    3             1.157979  -0.037134   1.237105   0.000345   0.000345
    4            -0.037134  -0.037134   0.008310   1.237105   0.008310
    5             0.006188  -0.011258   0.000266  -0.001172   0.838518
    6            -0.003402  -0.011258  -0.000141   0.000416  -0.015312
    7            -0.011258  -0.003402  -0.015312   0.000266  -0.000141
    8            -0.011258   0.006188   0.838518  -0.000141   0.000266
    9             0.006188  -0.003402   0.000416   0.838518  -0.001172
   10            -0.003402   0.006188  -0.001172  -0.015312   0.000416

                     11         12         13         14         15

                  2.000000   2.000000   2.000000   2.000000   1.000000

    1            -0.068335  -0.068335  -0.068335   0.994141   0.000000
    2             0.000345   1.237105   0.008310   0.335287   0.168483
    3             0.008310   0.008310   1.237105   0.335287   0.164858
    4             1.237105   0.000345   0.000345   0.335286   0.666660
    5            -0.000141  -0.015312   0.000416   0.000000   0.000000
    6             0.000266   0.838518  -0.001172   0.000000   0.000000
    7             0.000416  -0.001172   0.838518   0.000000   0.000000
    8            -0.001172   0.000416  -0.015312   0.000000   0.000000
    9            -0.015312  -0.000141   0.000266   0.000000   0.000000
   10             0.838518   0.000266  -0.000141   0.000000   0.000000

                     16

                  1.000000

    1             0.000000
    2             0.498184
    3             0.501809
    4             0.000007
    5             0.000000
    6             0.000000
    7             0.000000
    8             0.000000
    9             0.000000
   10             0.000000

     ATOMIC SPIN POPULATION (ALPHA MINUS BETA)
       ATOM         MULL.POP.                    LOW.POP.
    1 CARBON       -0.336381                    -0.238151
    2 CARBON        0.778794                     0.746051
    3 CARBON        0.778794                     0.746051
    4 CARBON        0.778793                     0.746050
    5 HYDROGEN      0.000000                     0.000000
    6 HYDROGEN      0.000000                     0.000000
    7 HYDROGEN      0.000000                     0.000000
    8 HYDROGEN      0.000000                     0.000000
    9 HYDROGEN      0.000000                     0.000000
   10 HYDROGEN      0.000000                     0.000000

               ----- POPULATIONS IN EACH AO -----
                             MULLIKEN      LOWDIN
              1  C  1  S      1.17432     1.09048
              2  C  1  S      0.81964     0.88454
              3  C  1  S      0.74102     0.56713
              4  C  1  S      0.39156     0.36165
              5  C  1  X      0.91442     0.85426
              6  C  1  Y      0.91442     0.85426
              7  C  1  Z      0.72051     0.63719
              8  C  1  X     -0.28110     0.26215
              9  C  1  Y     -0.28110     0.26215
             10  C  1  Z      0.27646     0.33214
             11  C  2  S      1.17427     1.09039
             12  C  2  S      0.81973     0.88470
             13  C  2  S      0.72205     0.59602
             14  C  2  S      0.71784     0.43237
             15  C  2  X      0.92693     0.81066
             16  C  2  Y      0.89833     0.82765
             17  C  2  Z      0.71925     0.67704
             18  C  2  X      0.24927     0.30147
             19  C  2  Y      0.06678     0.25621
             20  C  2  Z      0.28176     0.33319
             21  C  3  S      1.17427     1.09039
             22  C  3  S      0.81973     0.88470
             23  C  3  S      0.72205     0.59602
             24  C  3  S      0.71784     0.43237
             25  C  3  X      0.90548     0.82340
             26  C  3  Y      0.91978     0.81491
             27  C  3  Z      0.71925     0.67704
             28  C  3  X      0.11240     0.26752
             29  C  3  Y      0.20365     0.29015
             30  C  3  Z      0.28176     0.33319
             31  C  4  S      1.17427     1.09039
             32  C  4  S      0.81973     0.88470
             33  C  4  S      0.72205     0.59602
             34  C  4  S      0.71784     0.43237
             35  C  4  X      0.90548     0.82340
             36  C  4  Y      0.91978     0.81491
             37  C  4  Z      0.71925     0.67704
             38  C  4  X      0.11240     0.26752
             39  C  4  Y      0.20365     0.29015
             40  C  4  Z      0.28176     0.33319
             41  H  5  S      0.51971     0.50243
             42  H  5  S      0.29383     0.37507
             43  H  6  S      0.51971     0.50243
             44  H  6  S      0.29383     0.37507
             45  H  7  S      0.51971     0.50243
             46  H  7  S      0.29383     0.37507
             47  H  8  S      0.51971     0.50243
             48  H  8  S      0.29383     0.37507
             49  H  9  S      0.51971     0.50243
             50  H  9  S      0.29383     0.37507
             51  H 10  S      0.51971     0.50243
             52  H 10  S      0.29383     0.37507

          ----- MULLIKEN ATOMIC OVERLAP POPULATIONS -----
          (OFF-DIAGONAL ELEMENTS NEED TO BE MULTIPLIED BY 2)

             1           2           3           4           5

    1    4.5999085
    2    0.3396788   5.6209402
    3    0.3396788  -0.0730682   5.6209402
    4    0.3396789  -0.0730682  -0.0730682   5.6209401
    5   -0.0381301   0.3829969   0.0050941  -0.0072296   0.4927950
    6   -0.0381301   0.3829969  -0.0072296   0.0050941  -0.0232835
    7   -0.0381301  -0.0072296   0.3829969   0.0050941   0.0000739
    8   -0.0381301   0.0050941   0.3829969  -0.0072296  -0.0000651
    9   -0.0381301  -0.0072296   0.0050941   0.3829969   0.0012113
   10   -0.0381301   0.0050941  -0.0072296   0.3829968   0.0000739

             6           7           8           9          10

    6    0.4927950
    7    0.0012113   0.4927950
    8    0.0000739  -0.0232835   0.4927950
    9    0.0000739  -0.0000651   0.0000739   0.4927950
   10   -0.0000651   0.0000739   0.0012113  -0.0232835   0.4927950

          TOTAL MULLIKEN AND LOWDIN ATOMIC POPULATIONS
       ATOM         MULL.POP.    CHARGE          LOW.POP.     CHARGE
    1 CARBON        5.390165    0.609835         6.105947   -0.105947
    2 CARBON        6.576205   -0.576205         6.209684   -0.209684
    3 CARBON        6.576205   -0.576205         6.209684   -0.209684
    4 CARBON        6.576205   -0.576205         6.209684   -0.209684
    5 HYDROGEN      0.813537    0.186463         0.877500    0.122500
    6 HYDROGEN      0.813537    0.186463         0.877500    0.122500
    7 HYDROGEN      0.813537    0.186463         0.877500    0.122500
    8 HYDROGEN      0.813537    0.186463         0.877500    0.122500
    9 HYDROGEN      0.813537    0.186463         0.877500    0.122500
   10 HYDROGEN      0.813537    0.186463         0.877500    0.122500

          -------------------------------
          BOND ORDER AND VALENCE ANALYSIS     BOND ORDER THRESHOLD=0.050
          -------------------------------

                   BOND                       BOND                       BOND
  ATOM PAIR DIST  ORDER      ATOM PAIR DIST  ORDER      ATOM PAIR DIST  ORDER
    1   2  1.428  1.018        1   3  1.428  1.018        1   4  1.428  1.018
    2   5  1.081  0.960        2   6  1.081  0.960        3   7  1.081  0.960
    3   8  1.081  0.960        4   9  1.081  0.960        4  10  1.081  0.960

                       TOTAL       BONDED        FREE
      ATOM            VALENCE     VALENCE     VALENCE
    1 CARBON            3.080       2.853       0.227
    2 CARBON            3.706       3.026       0.680
    3 CARBON            3.706       3.026       0.680
    4 CARBON            3.706       3.026       0.680
    5 HYDROGEN          0.932       0.932      -0.000
    6 HYDROGEN          0.932       0.932       0.000
    7 HYDROGEN          0.932       0.932       0.000
    8 HYDROGEN          0.932       0.932       0.000
    9 HYDROGEN          0.932       0.932      -0.000
   10 HYDROGEN          0.932       0.932       0.000

          -----------------------------------------
          ATOMIC SPIN DENSITY AT THE NUCLEUS (A.U.)
          -----------------------------------------
                            SPIN DENS    ALPHA DENS     BETA DENS
    1  CARBON       6.0     0.0000000      59.75676      59.75676
    2  CARBON       6.0     0.0000000      59.75509      59.75509
    3  CARBON       6.0     0.0000000      59.75509      59.75509
    4  CARBON       6.0     0.0000000      59.75509      59.75509
    5  HYDROGEN     1.0     0.0000000       0.21041       0.21041
    6  HYDROGEN     1.0     0.0000000       0.21041       0.21041
    7  HYDROGEN     1.0     0.0000000       0.21041       0.21041
    8  HYDROGEN     1.0     0.0000000       0.21041       0.21041
    9  HYDROGEN     1.0     0.0000000       0.21041       0.21041
   10  HYDROGEN     1.0     0.0000000       0.21041       0.21041

          ---------------------
          ELECTROSTATIC MOMENTS
          ---------------------

 POINT   1           X           Y           Z (BOHR)    CHARGE
                 0.000000    0.000000    0.000000        0.00 (A.U.)
         DX          DY          DZ         /D/  (DEBYE)
     0.000000    0.000000    0.000000    0.000000
 ...... END OF PROPERTY EVALUATION ......
 STEP CPU TIME =     0.01 TOTAL CPU TIME =        3.7 (    0.1 MIN)
 TOTAL WALL CLOCK TIME=        3.8 SECONDS, CPU UTILIZATION IS  98.94%
               580000  WORDS OF DYNAMIC MEMORY USED
 EXECUTION OF GAMESS TERMINATED NORMALLY Mon Oct 14 07:29:50 2013
 DDI: 263624 bytes (0.3 MB / 0 MWords) used by master data server.

 ----------------------------------------
 CPU timing information for all processes
 ========================================
 0: 3.664 + 0.84 = 3.748
 ----------------------------------------
 ddikick.x: exited gracefully.
unset echo
----- accounting info -----
Files used on the master node titch-64 were:
-rw-r--r-- 1 brian brian    6512 Oct 14 07:29 /scr/brian/exam-vb20.F05
-rw-rw-r-- 1 brian brian 6480576 Oct 14 07:29 /scr/brian/exam-vb20.F08
-rw-rw-r-- 1 brian brian 1832320 Oct 14 07:29 /scr/brian/exam-vb20.F10
-rw-rw-r-- 1 brian brian     296 Oct 14 07:29 /scr/brian/exam-vb20.TEMP02
-rw-rw-r-- 1 brian brian     296 Oct 14 07:29 /scr/brian/exam-vb20.TEMP03
-rw-rw-r-- 1 brian brian    5336 Oct 14 07:29 /scr/brian/exam-vb20.TEMP04
-rw-rw-r-- 1 brian brian    5184 Oct 14 07:29 /scr/brian/exam-vb20.V80
-rw-rw-r-- 1 brian brian       0 Oct 14 07:29 /scr/brian/exam-vb20.V82
-rw-rw-r-- 1 brian brian       0 Oct 14 07:29 /scr/brian/exam-vb20.V83
-rw-rw-r-- 1 brian brian   23392 Oct 14 07:29 /scr/brian/exam-vb20.V84
-rw-rw-r-- 1 brian brian   11256 Oct 14 07:29 /scr/brian/exam-vb20.V85
-rw-rw-r-- 1 brian brian  196592 Oct 14 07:29 /scr/brian/exam-vb20.V86
-rw-rw-r-- 1 brian brian  982960 Oct 14 07:29 /scr/brian/exam-vb20.V87
-rw-rw-r-- 1 brian brian    3976 Oct 14 07:29 /scr/brian/exam-vb20.V88
-rw-rw-r-- 1 brian brian       0 Oct 14 07:29 /scr/brian/exam-vb20.V89
ls: No match.
ls: No match.
Mon Oct 14 07:29:53 EST 2013
0.084u 0.008s 0:06.98 1.1%	0+0k 16+40io 0pf+0w
