----- GAMESS execution script 'rungms' -----
This job is running on host titch-64
under operating system Linux at Mon Oct 14 07:30:11 EST 2013
Available scratch disk space (Kbyte units) at beginning of the job is
Filesystem     1K-blocks      Used Available Use% Mounted on
/dev/sda1      945022356 138269008 758748996  16% /
GAMESS temporary binary files will be written to /scr/brian
GAMESS supplementary output files will be written to /home/brian/scr
Copying input file exam-vb25.inp to your run's scratch directory...
cp tests/exam-vb25.inp /scr/brian/exam-vb25.F05
unset echo
/home/brian/qchem/gamess/ddikick.x /home/brian/qchem/gamess/gamess.01.x exam-vb25 -ddi 1 1 titch-64 -scr /scr/brian

 Distributed Data Interface kickoff program.
 Initiating 1 compute processes on 1 nodes to run the following command:
 /home/brian/qchem/gamess/gamess.01.x exam-vb25 

          ******************************************************
          *         GAMESS VERSION =  1 MAY 2013 (R1)          *
          *             FROM IOWA STATE UNIVERSITY             *
          * M.W.SCHMIDT, K.K.BALDRIDGE, J.A.BOATZ, S.T.ELBERT, *
          *   M.S.GORDON, J.H.JENSEN, S.KOSEKI, N.MATSUNAGA,   *
          *          K.A.NGUYEN, S.J.SU, T.L.WINDUS,           *
          *       TOGETHER WITH M.DUPUIS, J.A.MONTGOMERY       *
          *         J.COMPUT.CHEM.  14, 1347-1363(1993)        *
          **************** 64 BIT LINUX VERSION ****************

  SINCE 1993, STUDENTS AND POSTDOCS WORKING AT IOWA STATE UNIVERSITY
  AND ALSO IN THEIR VARIOUS JOBS AFTER LEAVING ISU HAVE MADE IMPORTANT
  CONTRIBUTIONS TO THE CODE:
     IVANA ADAMOVIC, CHRISTINE AIKENS, YURI ALEXEEV, POOJA ARORA,
     ANDREY ASADCHEV, ROB BELL, PRADIPTA BANDYOPADHYAY, JONATHAN BENTZ,
     BRETT BODE, GALINA CHABAN, WEI CHEN, CHEOL HO CHOI, PAUL DAY,
     ALBERT DEFUSCO, TIM DUDLEY, DMITRI FEDOROV, GRAHAM FLETCHER,
     MARK FREITAG, KURT GLAESEMANN, DAN KEMP, GRANT MERRILL,
     NORIYUKI MINEZAWA, JONATHAN MULLIN, TAKESHI NAGATA,
     SEAN NEDD, HEATHER NETZLOFF, BOSILJKA NJEGIC, RYAN OLSON, MIKE PAK,
     JIM SHOEMAKER, LYUDMILA SLIPCHENKO, SAROM SOK, JIE SONG,
     TETSUYA TAKETSUGU, SIMON WEBB, SOOHAENG YOO, FEDERICO ZAHARIEV

  ADDITIONAL CODE HAS BEEN PROVIDED BY COLLABORATORS IN OTHER GROUPS:
     IOWA STATE UNIVERSITY:
          JOE IVANIC, LAIMUTIS BYTAUTAS, KLAUS RUEDENBERG
     UNIVERSITY OF TOKYO: KIMIHIKO HIRAO, TAKAHITO NAKAJIMA,
          TAKAO TSUNEDA, MUNEAKI KAMIYA, SUSUMU YANAGISAWA,
          KIYOSHI YAGI, MAHITO CHIBA, SEIKEN TOKURA, NAOAKI KAWAKAMI
     UNIVERSITY OF AARHUS: FRANK JENSEN
     UNIVERSITY OF IOWA: VISVALDAS KAIRYS, HUI LI
     NATIONAL INST. OF STANDARDS AND TECHNOLOGY: WALT STEVENS, DAVID GARMER
     UNIVERSITY OF PISA: BENEDETTA MENNUCCI, JACOPO TOMASI
     UNIVERSITY OF MEMPHIS: HENRY KURTZ, PRAKASHAN KORAMBATH
     UNIVERSITY OF ALBERTA: TOBY ZENG, MARIUSZ KLOBUKOWSKI
     UNIVERSITY OF NEW ENGLAND: MARK SPACKMAN
     MIE UNIVERSITY: HIROAKI UMEDA
     MICHIGAN STATE UNIVERSITY:
          KAROL KOWALSKI, MARTA WLOCH, JEFFREY GOUR, JESSE LUTZ,
          WEI LI, PIOTR PIECUCH
     UNIVERSITY OF SILESIA: MONIKA MUSIAL, STANISLAW KUCHARSKI
     FACULTES UNIVERSITAIRES NOTRE-DAME DE LA PAIX:
          OLIVIER QUINET, BENOIT CHAMPAGNE
     UNIVERSITY OF CALIFORNIA - SANTA BARBARA: BERNARD KIRTMAN
     INSTITUTE FOR MOLECULAR SCIENCE:
          KAZUYA ISHIMURA, MICHIO KATOUDA, AND SHIGERU NAGASE
     UNIVERSITY OF NOTRE DAME: DAN CHIPMAN
     KYUSHU UNIVERSITY:
          HARUYUKI NAKANO,
          FENG LONG GU, JACEK KORCHOWIEC, MARCIN MAKOWSKI, AND YURIKO AOKI,
          HIROTOSHI MORI AND EISAKU MIYOSHI
     PENNSYLVANIA STATE UNIVERSITY:
          TZVETELIN IORDANOV, CHET SWALINA, JONATHAN SKONE,
          SHARON HAMMES-SCHIFFER
     WASEDA UNIVERSITY:
          MASATO KOBAYASHI, TOMOKO AKAMA, TSUGUKI TOUMA,
          TAKESHI YOSHIKAWA, YASUHIRO IKABATA, HIROMI NAKAI
     NANJING UNIVERSITY: SHUHUA LI
     UNIVERSITY OF NEBRASKA:
          PEIFENG SU, DEJUN SI, NANDUN THELLAMUREGE, YALI WANG, HUI LI
     UNIVERSITY OF ZURICH:
          ROBERTO PEVERATI, KIM BALDRIDGE
     N. COPERNICUS UNIVERSITY AND JACKSON STATE UNIVERSITY:
          MARIA BARYSZ

 EXECUTION OF GAMESS BEGUN Mon Oct 14 07:30:12 2013

            ECHO OF THE FIRST FEW INPUT CARDS -
 INPUT CARD>! GAMESS/VB2000 Test 25.                                                        
 INPUT CARD>! This run is an example of a VB2000 run for a closed shell case with           
 INPUT CARD>! full localization using $BRILLMASK. The molecule, geometry and basis          
 INPUT CARD>! set are identical to test 23, so this localisation can be compared            
 INPUT CARD>! with that using $LENHANCE.                                                    
 INPUT CARD>!                                                                               
 INPUT CARD>! The final RHF energy is the same as test 23:-                                 
 INPUT CARD>!                                                                               
 INPUT CARD>!  RHF ENERGY IS -76.0098376605 AFTER  10 ITERATIONS                            
 INPUT CARD>!                                                                               
 INPUT CARD>! The VB final energy is:-                                                      
 INPUT CARD>!                                                                               
 INPUT CARD>! ENERGY AND DIFF OF MACROITER    4 =    -75.85464851     -0.00000001           
 INPUT CARD>!                                                                               
 INPUT CARD>! and the VB and HF dipole moments are 1.2413 and 2.5778 respectively.          
 INPUT CARD>!                                                                               
 INPUT CARD>! Note that the VB energy, with this amount of localization is actually         
 INPUT CARD>! higher than the MO energy. All 10 electrons are in a single VB group          
 INPUT CARD>! so the core 1s and the lone pairs are also localised.                         
 INPUT CARD>!                                                                               
 INPUT CARD>! $GRPDIM                                                                       
 INPUT CARD>! 14     - all 14 basis functions are in group 1                                
 INPUT CARD>!                                                                               
 INPUT CARD>! $BRILLMASK                                                                    
 INPUT CARD>! -14    - BRILLMASK atomatically gets the conditions                           
 INPUT CARD>! 1,1,1,1,2,1,3,1,1,1,1,1,2,3 - but has to set the atoms for each AO            
 INPUT CARD>!                                                                               
 INPUT CARD>! $01VBORB      - the first 7 are good guesses for the 7 active AOs             
 INPUT CARD>! AO 1                                                                          
 INPUT CARD>! AO 3 + AO 6                                                                   
 INPUT CARD>! AO 3 - AO 6                                                                   
 INPUT CARD>! AO 7 + AO 5                                                                   
 INPUT CARD>! AO 12                                                                         
 INPUT CARD>! AO 7 - AO 5                                                                   
 INPUT CARD>! AO 14                                                                         
 INPUT CARD>! AO 2          - these complete the space by the inactive AOs                  
 INPUT CARD>! AO 4                                                                          
 INPUT CARD>! AO 8                                                                          
 INPUT CARD>! AO 9                                                                          
 INPUT CARD>! AO 10                                                                         
 INPUT CARD>! AO 11                                                                         
 INPUT CARD>! AO 13                                                                         
 INPUT CARD>!                                                                               
 INPUT CARD>! $01VBSTR - 1, 2 and 3 are doubly occupied. 4, 5, 6 & 7 are bonds              
 INPUT CARD>! 1                                                                             
 INPUT CARD>! 1 1 2 2 3 3 4 5 6 7                                                           
 INPUT CARD>!                                                                               
 INPUT CARD>! As in test 23 we add KDIAG=3 in the $SYSTEM block and test the DIIS           
 INPUT CARD>! convergence method.                                                           
 INPUT CARD>!                                                                               
    2000000 WORDS OF MEMORY AVAILABLE


     RUN TITLE
     ---------
 Water D95                                                                       

 THE POINT GROUP OF THE MOLECULE IS C1      
 THE ORDER OF THE PRINCIPAL AXIS IS     0
 *** WARNING! ATOM   2 SHELL    7 TYPE S HAS NORMALIZATION   1.00000234
 *** WARNING! ATOM   3 SHELL    9 TYPE S HAS NORMALIZATION   1.00000234

 ATOM      ATOMIC                      COORDINATES (BOHR)
           CHARGE         X                   Y                   Z
 OXYGEN      8.0     0.0000000000        0.0000000000        0.0000000000
 HYDROGEN    1.0     1.5152616654        0.0000000000        1.0498977437
 HYDROGEN    1.0    -1.5152616654        0.0000000000        1.0498977437

          INTERNUCLEAR DISTANCES (ANGS.)
          ------------------------------

                1 OXYG       2 HYDR       3 HYDR  

   1 OXYG    0.0000000    0.9755111 *  0.9755111 *
   2 HYDR    0.9755111 *  0.0000000    1.6036840 *
   3 HYDR    0.9755111 *  1.6036840 *  0.0000000  

  * ... LESS THAN  3.000


     ATOMIC BASIS SET
     ----------------
 THE CONTRACTED PRIMITIVE FUNCTIONS HAVE BEEN UNNORMALIZED
 THE CONTRACTED BASIS FUNCTIONS ARE NOW NORMALIZED TO UNITY

  SHELL TYPE  PRIMITIVE        EXPONENT          CONTRACTION COEFFICIENT(S)

 OXYGEN    

      1   S       1          7816.5400000    0.002030998165
      1   S       2          1175.8200000    0.015435986053
      1   S       3           273.1880000    0.073770933345
      1   S       4            81.1696000    0.247605776277
      1   S       5            27.1836000    0.611831447183
      1   S       6             3.4136000    0.241204782061

      2   S       7             9.5322000    1.000000000000

      3   S       8             0.9398000    1.000000000000

      4   S       9             0.2846000    1.000000000000

      5   P      10            35.1832000    0.019579982520
      5   P      11             7.9040000    0.124188889130
      5   P      12             2.3051000    0.394726647606
      5   P      13             0.7171000    0.627374439909

      6   P      14             0.2137000    1.000000000000

 HYDROGEN  

      7   S      15            19.2406000    0.032828076968
      7   S      16             2.8992000    0.231208542086
      7   S      17             0.6534000    0.817239916083

      8   S      18             0.1776000    1.000000000000

 HYDROGEN  

      9   S      19            19.2406000    0.032828076968
      9   S      20             2.8992000    0.231208542086
      9   S      21             0.6534000    0.817239916083

     10   S      22             0.1776000    1.000000000000

 TOTAL NUMBER OF BASIS SET SHELLS             =   10
 NUMBER OF CARTESIAN GAUSSIAN BASIS FUNCTIONS =   14
 NUMBER OF ELECTRONS                          =   10
 CHARGE OF MOLECULE                           =    0
 SPIN MULTIPLICITY                            =    1
 NUMBER OF OCCUPIED ORBITALS (ALPHA)          =    5
 NUMBER OF OCCUPIED ORBITALS (BETA )          =    5
 TOTAL NUMBER OF ATOMS                        =    3
 THE NUCLEAR REPULSION ENERGY IS        9.0093603723

     $CONTRL OPTIONS
     ---------------
 SCFTYP=RHF          RUNTYP=ENERGY       EXETYP=RUN     
 MPLEVL=       0     CITYP =NONE         CCTYP =NONE         VBTYP =VB2000  
 DFTTYP=NONE         TDDFT =NONE    
 MULT  =       1     ICHARG=       0     NZVAR =       0     COORD =UNIQUE  
 PP    =NONE         RELWFN=NONE         LOCAL =NONE         NUMGRD=       F
 ISPHER=      -1     NOSYM =       0     MAXIT =      30     UNITS =ANGS    
 PLTORB=       F     MOLPLT=       F     AIMPAC=       F     FRIEND=        
 NPRINT=       7     IREST =       0     GEOM  =INPUT   
 NORMF =       0     NORMP =       0     ITOL  =      20     ICUT  =       9
 INTTYP=BEST         GRDTYP=BEST         QMTTOL= 1.0E-06

     $SYSTEM OPTIONS
     ---------------
  REPLICATED MEMORY=     2000000 WORDS (ON EVERY NODE).
 DISTRIBUTED MEMDDI=           0 MILLION WORDS IN AGGREGATE,
 MEMDDI DISTRIBUTED OVER   1 PROCESSORS IS           0 WORDS/PROCESSOR.
 TOTAL MEMORY REQUESTED ON EACH PROCESSOR=     2000000 WORDS.
 TIMLIM=          20.00 MINUTES, OR       0.0 DAYS.
 PARALL= F  BALTYP=  DLB     KDIAG=    3  COREFL= F
 MXSEQ2=     300 MXSEQ3=     150

          ----------------
          PROPERTIES INPUT
          ----------------

     MOMENTS            FIELD           POTENTIAL          DENSITY
 IEMOM =       1   IEFLD =       0   IEPOT =       0   IEDEN =       0
 WHERE =COMASS     WHERE =NUCLEI     WHERE =NUCLEI     WHERE =NUCLEI  
 OUTPUT=BOTH       OUTPUT=BOTH       OUTPUT=BOTH       OUTPUT=BOTH    
 IEMINT=       0   IEFINT=       0                     IEDINT=       0
                                                       MORB  =       0
          EXTRAPOLATION IN EFFECT
          SOSCF IN EFFECT
 ORBITAL PRINTING OPTION: NPREO=     1    14     2     1

     -------------------------------
     INTEGRAL TRANSFORMATION OPTIONS
     -------------------------------
     NWORD  =            0
     CUTOFF = 1.0E-09     MPTRAN =       0
     DIRTRF =       F     AOINTS =DUP     

          ----------------------
          INTEGRAL INPUT OPTIONS
          ----------------------
 NOPK  =       1 NORDER=       0 SCHWRZ=       F

     ------------------------------------------
     THE POINT GROUP IS C1 , NAXIS= 0, ORDER= 1
     ------------------------------------------

     DIMENSIONS OF THE SYMMETRY SUBSPACES ARE
 A   =   14

 ..... DONE SETTING UP THE RUN .....
 STEP CPU TIME =     0.01 TOTAL CPU TIME =        0.0 (    0.0 MIN)
 TOTAL WALL CLOCK TIME=        0.0 SECONDS, CPU UTILIZATION IS 100.00%

          ********************
          1 ELECTRON INTEGRALS
          ********************
 ...... END OF ONE-ELECTRON INTEGRALS ......
 STEP CPU TIME =     0.00 TOTAL CPU TIME =        0.0 (    0.0 MIN)
 TOTAL WALL CLOCK TIME=        0.0 SECONDS, CPU UTILIZATION IS 100.00%

          -------------
          GUESS OPTIONS
          -------------
          GUESS =HUCKEL            NORB  =       0          NORDER=       0
          MIX   =       F          PRTMO =       F          PUNMO =       F
          TOLZ  = 1.0E-08          TOLE  = 1.0E-05
          SYMDEN=       F          PURIFY=       F

 INITIAL GUESS ORBITALS GENERATED BY HUCKEL   ROUTINE.
 HUCKEL GUESS REQUIRES      3745 WORDS.

 SYMMETRIES FOR INITIAL GUESS ORBITALS FOLLOW.   BOTH SET(S).
     5 ORBITALS ARE OCCUPIED (    1 CORE ORBITALS).
     2=A        3=A        4=A        5=A        6=A        7=A        8=A   
     9=A       10=A       11=A       12=A       13=A       14=A   
 ...... END OF INITIAL ORBITAL SELECTION ......
 STEP CPU TIME =     0.00 TOTAL CPU TIME =        0.0 (    0.0 MIN)
 TOTAL WALL CLOCK TIME=        0.0 SECONDS, CPU UTILIZATION IS 100.00%

                    ----------------------
                    AO INTEGRAL TECHNOLOGY
                    ----------------------
     S,P,L SHELL ROTATED AXIS INTEGRALS, REPROGRAMMED BY
        KAZUYA ISHIMURA (IMS) AND JOSE SIERRA (SYNSTAR).
     S,P,D,L SHELL ROTATED AXIS INTEGRALS PROGRAMMED BY
        KAZUYA ISHIMURA (INSTITUTE FOR MOLECULAR SCIENCE).
     S,P,D,F,G SHELL TO TOTAL QUARTET ANGULAR MOMENTUM SUM 5,
        ERIC PROGRAM BY GRAHAM FLETCHER (ELORET AND NASA ADVANCED
        SUPERCOMPUTING DIVISION, AMES RESEARCH CENTER).
     S,P,D,F,G,L SHELL GENERAL RYS QUADRATURE PROGRAMMED BY
        MICHEL DUPUIS (PACIFIC NORTHWEST NATIONAL LABORATORY).

          --------------------
          2 ELECTRON INTEGRALS
          --------------------

 THE -PK- OPTION IS OFF, THE INTEGRALS ARE NOT IN SUPERMATRIX FORM.
 STORING   15000 INTEGRALS/RECORD ON DISK, USING 12 BYTES/INTEGRAL.
 TWO ELECTRON INTEGRAL EVALUATION REQUIRES   89411 WORDS OF MEMORY.
 II,JST,KST,LST =  1  1  1  1 NREC =         1 INTLOC =    1
 II,JST,KST,LST =  2  1  1  1 NREC =         1 INTLOC =    2
 II,JST,KST,LST =  3  1  1  1 NREC =         1 INTLOC =    7
 II,JST,KST,LST =  4  1  1  1 NREC =         1 INTLOC =   22
 II,JST,KST,LST =  5  1  1  1 NREC =         1 INTLOC =   56
 II,JST,KST,LST =  6  1  1  1 NREC =         1 INTLOC =  125
 II,JST,KST,LST =  7  1  1  1 NREC =         1 INTLOC =  329
 II,JST,KST,LST =  8  1  1  1 NREC =         1 INTLOC =  760
 II,JST,KST,LST =  9  1  1  1 NREC =         1 INTLOC = 1334
 II,JST,KST,LST = 10  1  1  1 NREC =         1 INTLOC = 2069
 TOTAL NUMBER OF NONZERO TWO-ELECTRON INTEGRALS =                3009
          1 INTEGRAL RECORDS WERE STORED ON DISK FILE  8.
  ...... END OF TWO-ELECTRON INTEGRALS .....
 STEP CPU TIME =     0.01 TOTAL CPU TIME =        0.0 (    0.0 MIN)
 TOTAL WALL CLOCK TIME=        0.0 SECONDS, CPU UTILIZATION IS 100.00%

          --------------------------
                 RHF SCF CALCULATION
          --------------------------

     NUCLEAR ENERGY =         9.0093603723
     MAXIT =   30     NPUNCH=    2
     EXTRAP=T  DAMP=F  SHIFT=F  RSTRCT=F  DIIS=F  DEM=F  SOSCF=T
     DENSITY MATRIX CONV=  1.00E-05
     SOSCF WILL OPTIMIZE      45 ORBITAL ROTATIONS, SOGTOL=   0.250
     MEMORY REQUIRED FOR RHF ITERS=     31748 WORDS.

 ITER EX DEM     TOTAL ENERGY        E CHANGE  DENSITY CHANGE     ORB. GRAD
   1  0  0      -75.7825964333   -75.7825964333   0.224650783   0.000000000
          ---------------START SECOND ORDER SCF---------------
   2  1  0      -75.9946325860    -0.2120361527   0.062293893   0.062760173
   3  2  0      -76.0083085136    -0.0136759276   0.034498647   0.013590464
   4  3  0      -76.0097666189    -0.0014581053   0.008458642   0.003702597
   5  4  0      -76.0098225020    -0.0000558831   0.002686877   0.001857988
   6  5  0      -76.0098369200    -0.0000144180   0.000889021   0.000349160
   7  6  0      -76.0098376375    -0.0000007175   0.000141294   0.000073743
   8  7  0      -76.0098376574    -0.0000000198   0.000083641   0.000029204
   9  8  0      -76.0098376605    -0.0000000032   0.000005589   0.000003301
  10  9  0      -76.0098376605    -0.0000000000   0.000001319   0.000000500

          -----------------
          DENSITY CONVERGED
          -----------------
     TIME TO FORM FOCK OPERATORS=       0.0 SECONDS (       0.0 SEC/ITER)
     TIME TO SOLVE SCF EQUATIONS=       0.0 SECONDS (       0.0 SEC/ITER)

 FINAL RHF ENERGY IS      -76.0098376605 AFTER  10 ITERATIONS

          ------------
          EIGENVECTORS
          ------------

                      1          2          3          4          5
                  -20.5581    -1.3459    -0.7172    -0.5530    -0.5025
                     A          A          A          A          A   
    1  O  1  S    0.581012  -0.130941  -0.000000   0.044407  -0.000000
    2  O  1  S    0.461238  -0.181527  -0.000000   0.061989  -0.000000
    3  O  1  S   -0.000166   0.511096  -0.000000  -0.188614  -0.000000
    4  O  1  S    0.001877   0.460447  -0.000000  -0.249763  -0.000000
    5  O  1  X   -0.000000   0.000000   0.569277  -0.000000  -0.000000
    6  O  1  Y   -0.000000   0.000000  -0.000000  -0.000000   0.727677
    7  O  1  Z    0.001591   0.117049  -0.000000   0.633272  -0.000000
    8  O  1  X   -0.000000   0.000000   0.178846  -0.000000  -0.000000
    9  O  1  Y   -0.000000   0.000000  -0.000000  -0.000000   0.410295
   10  O  1  Z   -0.000453   0.032478  -0.000000   0.338847  -0.000000
   11  H  2  S    0.000040   0.132500   0.253144   0.133633  -0.000000
   12  H  2  S   -0.000183   0.007729   0.128386   0.061411  -0.000000
   13  H  3  S    0.000040   0.132500  -0.253144   0.133633  -0.000000
   14  H  3  S   -0.000183   0.007729  -0.128386   0.061411  -0.000000

                      6          7          8          9         10
                    0.2140     0.3061     0.8676     0.8918     0.9433
                     A          A          A          A          A   
    1  O  1  S   -0.050770  -0.000000  -0.000000  -0.020819   0.000000
    2  O  1  S   -0.068028  -0.000000  -0.000000  -0.029194   0.000000
    3  O  1  S    0.111881  -0.000000  -0.000000   0.077917   0.000000
    4  O  1  S    1.227709  -0.000000  -0.000000   0.351483   0.000000
    5  O  1  X    0.000000   0.404332  -0.000000   0.000000  -0.541095
    6  O  1  Y    0.000000  -0.000000  -0.902571   0.000000   0.000000
    7  O  1  Z    0.263428  -0.000000  -0.000000  -0.869352   0.000000
    8  O  1  X    0.000000   1.044591  -0.000000   0.000000   1.715720
    9  O  1  Y    0.000000  -0.000000   1.084346   0.000000   0.000000
   10  O  1  Z    0.494983  -0.000000  -0.000000   1.285947   0.000000
   11  H  2  S   -0.066060  -0.036124  -0.000000  -0.161464  -0.571570
   12  H  2  S   -1.036679  -1.533865  -0.000000  -0.242859  -0.419148
   13  H  3  S   -0.066060   0.036124  -0.000000  -0.161464   0.571570
   14  H  3  S   -1.036679   1.533865  -0.000000  -0.242859   0.419148

                     11         12         13         14
                    1.1693     1.2271     1.6522    43.3291
                     A          A          A          A   
    1  O  1  S    0.046437   0.000000   0.143307  -1.731320
    2  O  1  S    0.069951   0.000000   0.251807   1.876660
    3  O  1  S   -0.306098   0.000000  -1.965799  -0.390427
    4  O  1  S    0.175750   0.000000   2.840152   0.345912
    5  O  1  X    0.000000  -0.846628   0.000000  -0.000000
    6  O  1  Y    0.000000   0.000000   0.000000  -0.000000
    7  O  1  Z   -0.373890   0.000000  -0.056230  -0.008894
    8  O  1  X    0.000000   0.972009   0.000000  -0.000000
    9  O  1  Y    0.000000   0.000000   0.000000  -0.000000
   10  O  1  Z   -0.090193   0.000000   0.637517   0.061549
   11  H  2  S    0.991175   0.805018  -0.295989  -0.005273
   12  H  2  S   -0.613645  -1.276857  -0.673846  -0.085131
   13  H  3  S    0.991175  -0.805018  -0.295989  -0.005273
   14  H  3  S   -0.613645   1.276857  -0.673846  -0.085131
 ...... END OF RHF CALCULATION ......
 STEP CPU TIME =     0.00 TOTAL CPU TIME =        0.0 (    0.0 MIN)
 TOTAL WALL CLOCK TIME=        0.0 SECONDS, CPU UTILIZATION IS 100.00%

     ----------------------------------------------------------------
     PROPERTY VALUES FOR THE RHF   SELF-CONSISTENT FIELD WAVEFUNCTION
     ----------------------------------------------------------------

          -----------------
          ENERGY COMPONENTS
          -----------------

         WAVEFUNCTION NORMALIZATION =       1.0000000000

                ONE ELECTRON ENERGY =    -122.6848660192
                TWO ELECTRON ENERGY =      37.6656679864
           NUCLEAR REPULSION ENERGY =       9.0093603723
                                      ------------------
                       TOTAL ENERGY =     -76.0098376605

 ELECTRON-ELECTRON POTENTIAL ENERGY =      37.6656679864
  NUCLEUS-ELECTRON POTENTIAL ENERGY =    -198.6615380904
   NUCLEUS-NUCLEUS POTENTIAL ENERGY =       9.0093603723
                                      ------------------
             TOTAL POTENTIAL ENERGY =    -151.9865097317
               TOTAL KINETIC ENERGY =      75.9766720712
                 VIRIAL RATIO (V/T) =       2.0004365233

  ...... PI ENERGY ANALYSIS ......

 ENERGY ANALYSIS:
            FOCK ENERGY=    -47.3535289513
          BARE H ENERGY=   -122.6848660192
     ELECTRONIC ENERGY =    -85.0191974852
         KINETIC ENERGY=     75.9766720712
          N-N REPULSION=      9.0093603723
           TOTAL ENERGY=    -76.0098371130
        SIGMA PART(1+2)=    -77.4692694025
               (K,V1,2)=     71.4309919023   -180.0209511896     31.1206898848
           PI PART(1+2)=     -7.5499280827
               (K,V1,2)=      4.5456801689    -18.6405869008      6.5449786492
  SIGMA SKELETON, ERROR=    -68.4599090303     -0.0000000000
             MIXED PART= 0.00000E+00 0.00000E+00 0.00000E+00 0.00000E+00
 ...... END OF PI ENERGY ANALYSIS ......

          ---------------------------------------
          MULLIKEN AND LOWDIN POPULATION ANALYSES
          ---------------------------------------

     ATOMIC MULLIKEN POPULATION IN EACH MOLECULAR ORBITAL

                      1          2          3          4          5

                  2.000000   2.000000   2.000000   2.000000   2.000000

    1             2.000049   1.729623   1.252266   1.812831   2.000000
    2            -0.000024   0.135189   0.373867   0.093585   0.000000
    3            -0.000024   0.135189   0.373867   0.093585   0.000000

               ----- POPULATIONS IN EACH AO -----
                             MULLIKEN      LOWDIN
              1  O  1  S      1.13222     1.07250
              2  O  1  S      0.86265     0.90920
              3  O  1  S      0.91864     0.86054
              4  O  1  S      0.94074     0.77968
              5  O  1  X      0.96083     0.86522
              6  O  1  Y      1.36117     1.31152
              7  O  1  Z      1.14623     1.08038
              8  O  1  X      0.29144     0.42800
              9  O  1  Y      0.63883     0.68848
             10  O  1  Z      0.54203     0.61006
             11  H  2  S      0.47720     0.45016
             12  H  2  S      0.12542     0.24706
             13  H  3  S      0.47720     0.45016
             14  H  3  S      0.12542     0.24706

          ----- MULLIKEN ATOMIC OVERLAP POPULATIONS -----
          (OFF-DIAGONAL ELEMENTS NEED TO BE MULTIPLIED BY 2)

             1           2           3

    1    8.2360183
    2    0.2793749   0.3536393
    3    0.2793749  -0.0303982   0.3536393

          TOTAL MULLIKEN AND LOWDIN ATOMIC POPULATIONS
       ATOM         MULL.POP.    CHARGE          LOW.POP.     CHARGE
    1 OXYGEN        8.794768   -0.794768         8.605567   -0.605567
    2 HYDROGEN      0.602616    0.397384         0.697216    0.302784
    3 HYDROGEN      0.602616    0.397384         0.697216    0.302784

          -------------------------------
          BOND ORDER AND VALENCE ANALYSIS     BOND ORDER THRESHOLD=0.050
          -------------------------------

                   BOND                       BOND                       BOND
  ATOM PAIR DIST  ORDER      ATOM PAIR DIST  ORDER      ATOM PAIR DIST  ORDER
    1   2  0.976  0.810        1   3  0.976  0.810

                       TOTAL       BONDED        FREE
      ATOM            VALENCE     VALENCE     VALENCE
    1 OXYGEN            1.619       1.619      -0.000
    2 HYDROGEN          0.817       0.817       0.000
    3 HYDROGEN          0.817       0.817      -0.000

          ---------------------
          ELECTROSTATIC MOMENTS
          ---------------------

 POINT   1           X           Y           Z (BOHR)    CHARGE
                 0.000000    0.000000    0.117499       -0.00 (A.U.)
         DX          DY          DZ         /D/  (DEBYE)
     0.000000    0.000000    2.577826    2.577826
 ...... END OF PROPERTY EVALUATION ......
 STEP CPU TIME =     0.00 TOTAL CPU TIME =        0.0 (    0.0 MIN)
 TOTAL WALL CLOCK TIME=        0.0 SECONDS, CPU UTILIZATION IS 100.00%

 **************************************************************
 *                                                            *
 *         ENTERING VB2000 INTERFACED INTO GAMESS(US)         *
 *                                                            *
 **************************************************************

 **************************************************************
 *                                                            *
 *                        V B 2 0 0 0                         *
 *                                                            *
 *       An ab initio Valence-Bond Program Based on the       *
 *           Generalized Product Function Method and          *
 *                   the Algebrant Algorithm                  *
 *                                                            *
 *                   Version 2.7 October 2013                 *
 *                      GAMESS(US) Version                    *
 *                     Compiler: gfortran                     *
 *                                                            *
 *         Jiabo Li*, Brian Duke** and Roy McWeeny***         *
 *                                                            *
 *        * SciNet Technologies, 9943 Fieldthorn St.,         *
 *                   San Diego, CA 92127, USA                 *
 *                                                            *
 *  ** Monash University Institute of Pharmaceutical Sciences,*
 *     381 Royal Pde, Parkville, Victoria, 3052, Australia    *
 *                                                            *
 * *** Department of Chemistry, University of Pisa,           *
 *     56100 Pisa, Italy                                      *
 *                                                            *
 *  Reference for the software:                               *
 *     Jiabo Li, Brian Duke, and Roy McWeeny, VB2000 Version  *
 *     2.7, SciNet Technologies, San Diego, CA, 2013          *
 *     URL: http://www.scinetec.com or http://www.vb2000.net  *
 *                                                            *
 *  References for the theory:                                *
 *     General:                                               *
 *     Jiabo Li, and Roy McWeeny, "VB2000: Pushing Valence    *
 *     Bond Theory to New Limits", Int. J. Quantum Chem.,     *
 *     89(2002)208-216.                                       *
 *                                                            *
 *     Spin densities:-                                       *
 *     Jiabo Li, Brian J. Duke, Thomas M. Klapoetke, and Roy  *
 *     McWeeny, Spin-Density of Spin-Free Valence Bond Wave   *
 *     Functions and Its Implementation in VB2000. J. Theor.  *
 *     Comp. Chem. 7(2008)853-867.                            *
 *                                                            *
 *     Spin coupled - n electrons in m orbitals:-             *
 *     Peter B. Karadakov, David L. Cooper, Brian J. Duke,    *
 *     and Jiabo Li, Spin-Coupled Theory for N Electrons in   *
 *     M Orbitals Active Spaces,  J. Phys. Chem. A, 116,      *
 *     7238 - 7244, 2012                                      *
 *                                                            *
 *  Copyright (C) 2000-2013 by SciNet Technologies            *
 **************************************************************

 JOB NAME IS exam-vb25                                                       

 VB2000 DIRECTORY IS: /home/brian/qchem/gamess/vb2000                                                 
 MAXIMUM MEMORY USE IS:     6500000
 THIS IS TAKEN AS THE MAXIMUM OF THE UNUSED MEMORY REQUESTED
 IN GAMESS $SYSTEM BLOCK AND MEMORY REQUESTED IN VB2000 DATA

 Input of molecule
 =================
 #! VB(10)/D95  PRINTALL DIIS                                                    
                                                                                 
 Title: TEST H2O                                                                        

 Charge =  0 Multiplicity =  1

 ATOM      ATOMIC                      COORDINATES (ANGS)
           CHARGE         X                   Y                   Z
 OXYGEN      8.0     0.0000000000        0.0000000000        0.0000000000
 HYDROGEN    1.0     0.8018419996        0.0000000000        0.5555819997
 HYDROGEN    1.0    -0.8018419996        0.0000000000        0.5555819997

 Hartree-Fock Energy from Gamess run =     -76.009837660532

 Basis set size =   14

                    PARAMETER LIMIT VALUES
 Max. no. of atoms                    MAXCEN =   200
 Max. no. of basis functions          MAXBFN =   726
 Max. no. of shells                   MAXSHL =   500
 Max. no. of total primitives         MAXEXP =  1000
 Max. no. of primitives per orbital   MAXPRM =    15
 Max. no. of atoms * no. of orbitals  MAXNAB = 72600
 Increase max basis set size by       NEXTRA =    20
 Max. size for Rumer data             MAXST1 = 33334
 Max. no. of orbitals in group        MAXNOB =   200
 Max. no. of CUBE orbitals            MAXCUB =   100
 Max. no. of groups                   MAXGRP =    99

 BASIS FROM #! LINE = D95                 

 VBO LIB IS: /home/brian/qchem/gamess/vb2000/VBOLIB/VBOLIBD95                                
 IS BASIS D95 CORRECTLY DEFINED IN $DATA GROUP?

 Molecular orbitals by HF method
 ===============================================================================
 MO#                       1         2         3         4         5         6
 E(a.u.)             -20.558    -1.346    -0.717    -0.553    -0.502     0.214
 -------------------------------------------------------------------------------

   1  1  O     s    -0.58101  -0.13094   0.00000  -0.04441   0.00000  -0.05077
   2  1  O     s    -0.46124  -0.18153   0.00000  -0.06199   0.00000  -0.06803
   3  1  O     s     0.00017   0.51110   0.00000   0.18861   0.00000   0.11188
   4  1  O     s    -0.00188   0.46045   0.00000   0.24976   0.00000   1.22771
   5  1  O     x     0.00000   0.00000  -0.56928   0.00000   0.00000   0.00000
   6  1  O     y     0.00000   0.00000   0.00000   0.00000  -0.72768   0.00000
   7  1  O     z    -0.00159   0.11705   0.00000  -0.63327   0.00000   0.26343
   8  1  O     x     0.00000   0.00000  -0.17885   0.00000   0.00000   0.00000
   9  1  O     y     0.00000   0.00000   0.00000   0.00000  -0.41030   0.00000
  10  1  O     z     0.00045   0.03248   0.00000  -0.33885   0.00000   0.49498
  11  2  H     s    -0.00004   0.13250  -0.25314  -0.13363   0.00000  -0.06606
  12  2  H     s     0.00018   0.00773  -0.12839  -0.06141   0.00000  -1.03668
  13  3  H     s    -0.00004   0.13250   0.25314  -0.13363   0.00000  -0.06606
  14  3  H     s     0.00018   0.00773   0.12839  -0.06141   0.00000  -1.03668

 MO#                       7         8         9        10
 E(a.u.)               0.306     0.868     0.892     0.943
 -------------------------------------------------------------------------------

   1  1  O     s     0.00000   0.00000  -0.02082   0.00000
   2  1  O     s     0.00000   0.00000  -0.02919   0.00000
   3  1  O     s     0.00000   0.00000   0.07792   0.00000
   4  1  O     s     0.00000   0.00000   0.35148   0.00000
   5  1  O     x    -0.40433   0.00000   0.00000  -0.54109
   6  1  O     y     0.00000   0.90257   0.00000   0.00000
   7  1  O     z     0.00000   0.00000  -0.86935   0.00000
   8  1  O     x    -1.04459   0.00000   0.00000   1.71572
   9  1  O     y     0.00000  -1.08435   0.00000   0.00000
  10  1  O     z     0.00000   0.00000   1.28595   0.00000
  11  2  H     s     0.03612   0.00000  -0.16146  -0.57157
  12  2  H     s     1.53386   0.00000  -0.24286  -0.41915
  13  3  H     s    -0.03612   0.00000  -0.16146   0.57157
  14  3  H     s    -1.53386   0.00000  -0.24286   0.41915


 Localized molecular orbitals and the bond labels
 ===============================================================================
 LMO#                      1         2         3         4         5
 E(a.u.)             -20.183    -1.205    -0.502    -0.893    -0.893
 Bond Label            1:(0)     1:(1)     1:(2)    3-1(1)    2-1(1)
 -------------------------------------------------------------------------------

   1  1  O     s    -0.59398  -0.03872   0.00001  -0.03447  -0.03447
   2  1  O     s    -0.48259  -0.09945   0.00001  -0.05810  -0.05811
   3  1  O     s     0.07393   0.46230  -0.00001   0.19699   0.19699
   4  1  O     s     0.07065   0.47858  -0.00001   0.14207   0.14207
   5  1  O     x    -0.00000  -0.00000  -0.00000  -0.40254   0.40254
   6  1  O     y    -0.00001  -0.00001  -0.72768  -0.00000  -0.00000
   7  1  O     z    -0.03597  -0.41776   0.00001   0.34563   0.34563
   8  1  O     x    -0.00000  -0.00000  -0.00000  -0.12646   0.12646
   9  1  O     y    -0.00000  -0.00001  -0.41030  -0.00000  -0.00000
  10  1  O     z    -0.02147  -0.24236   0.00000   0.16833   0.16833
  11  2  H     s     0.00524  -0.02149   0.00000  -0.04685   0.31115
  12  2  H     s    -0.00358  -0.04280   0.00000  -0.05927   0.12230
  13  3  H     s     0.00524  -0.02149   0.00000   0.31115  -0.04685
  14  3  H     s    -0.00358  -0.04280   0.00000   0.12230  -0.05927


 Mulliken population of localized molecular orbitals
 ===============================================================================
 LMO#                      1         2         3         4         5
 E(a.u.)             -20.183    -1.205    -0.502    -0.893    -0.893
 Bond Label            1:(0)     1:(1)     1:(2)    3-1(1)    2-1(1)
 -------------------------------------------------------------------------------

   1         O       1.99983   2.05411   2.00000   1.37041   1.37041
   2         H       0.00008  -0.02706  -0.00000  -0.01748   0.64707
   3         H       0.00008  -0.02706  -0.00000   0.64707  -0.01748


 PARTITIONING OF LMOs INTO GROUPS ($LMOGRP)
 =======================================================================
 LMO#     1  2  3  4  5
 Group#   1  1  1  1  1
 Split    1  1  1  1  1

 WARNING: you are splitting a lone-pair LMO(  1)
 WARNING: you are splitting a lone-pair LMO(  2)
 WARNING: you are splitting a lone-pair LMO(  3)
 WARNING: Initial orbital 11 undefined from DISLMO
 Initial orbital
 WARNING: Initial orbital 12 undefined from DISLMO
 Initial orbital
 WARNING: Initial orbital 13 undefined from DISLMO
 Initial orbital
 WARNING: Initial orbital 14 undefined from DISLMO
 Initial orbital



 Initial guess of orbitals
 ===============================================================================
 ORBITAL#                  1         2         3         4         5         6
 Bond Label         AO TYPE   AO TYPE   AO TYPE   AO TYPE   AO TYPE   AO TYPE 
 -------------------------------------------------------------------------------

   1  1  O     s     1.00000  -0.00000  -0.00000   0.00000  -0.00000   0.00000
   2  1  O     s    -0.00000  -0.00000  -0.00000  -0.00000  -0.00000  -0.00000
   3  1  O     s     0.00000   0.70711   0.70711   0.00000   0.00000   0.00000
   4  1  O     s     0.00000  -0.00000  -0.00000  -0.00000  -0.00000  -0.00000
   5  1  O     x    -0.00000  -0.00000  -0.00000   0.70711   0.00000  -0.70711
   6  1  O     y    -0.00000   0.70711  -0.70711  -0.00000  -0.00000   0.00000
   7  1  O     z     0.00000   0.00000   0.00000   0.70711   0.00000   0.70711
   8  1  O     x     0.00000  -0.00000  -0.00000  -0.00000  -0.00000   0.00000
   9  1  O     y     0.00000   0.00000  -0.00000  -0.00000   0.00000  -0.00000
  10  1  O     z    -0.00000  -0.00000  -0.00000   0.00000  -0.00000   0.00000
  11  2  H     s    -0.00000  -0.00000  -0.00000  -0.00000  -0.00000   0.00000
  12  2  H     s     0.00000   0.00000   0.00000  -0.00000   1.00000   0.00000
  13  3  H     s     0.00000   0.00000   0.00000  -0.00000   0.00000  -0.00000
  14  3  H     s     0.00000   0.00000   0.00000   0.00000   0.00000   0.00000

 ORBITAL#                  7         8         9        10        11        12
 Bond Label         AO TYPE   AO TYPE   AO TYPE   AO TYPE   AO TYPE   AO TYPE 
 -------------------------------------------------------------------------------

   1  1  O     s     0.00000  -0.00000   0.00000  -0.00000   0.00000  -0.00000
   2  1  O     s    -0.00000   1.00000  -0.00000   0.00000  -0.00000   0.00000
   3  1  O     s     0.00000   0.00000   0.00000   0.00000  -0.00000   0.00000
   4  1  O     s    -0.00000  -0.00000   1.00000  -0.00000   0.00000  -0.00000
   5  1  O     x    -0.00000  -0.00000   0.00000   0.00000  -0.00000   0.00000
   6  1  O     y     0.00000   0.00000  -0.00000  -0.00000   0.00000   0.00000
   7  1  O     z     0.00000   0.00000   0.00000   0.00000   0.00000   0.00000
   8  1  O     x     0.00000   0.00000   0.00000   1.00000   0.00000  -0.00000
   9  1  O     y     0.00000  -0.00000   0.00000   0.00000   1.00000  -0.00000
  10  1  O     z    -0.00000  -0.00000  -0.00000  -0.00000   0.00000   1.00000
  11  2  H     s    -0.00000  -0.00000  -0.00000  -0.00000  -0.00000  -0.00000
  12  2  H     s     0.00000   0.00000   0.00000   0.00000  -0.00000   0.00000
  13  3  H     s    -0.00000   0.00000   0.00000   0.00000  -0.00000  -0.00000
  14  3  H     s     1.00000   0.00000   0.00000   0.00000   0.00000   0.00000

 ORBITAL#                 13        14
 Bond Label         AO TYPE   AO TYPE 
 -------------------------------------------------------------------------------

   1  1  O     s    -0.00000   0.00000
   2  1  O     s     0.00000  -0.00000
   3  1  O     s     0.00000   0.00000
   4  1  O     s    -0.00000  -0.00000
   5  1  O     x    -0.00000   0.00000
   6  1  O     y    -0.00000   0.00000
   7  1  O     z     0.00000   0.00000
   8  1  O     x     0.00000  -0.00000
   9  1  O     y     0.00000   0.00000
  10  1  O     z    -0.00000  -0.00000
  11  2  H     s     1.00000   0.00000
  12  2  H     s    -0.00000   0.00000
  13  3  H     s     0.00000   1.00000
  14  3  H     s     0.00000   0.00000


      GENERAL CONTROLS ($GENCTL)
 ====================================
 Number of electron groups       =    1
 Maximum macro-iterations        =   12
 Energy threshold           = 10**(- 6)
 Restart calculation(0/1/2)      =    0
 Group#                     1
 Num. of electrons         10
 Num. of spins              0
 Num. of orbitals          14
 Method#                    2

 SYMBOLIC VB STRUCTURE(S) OF GROUP  1
 STR. NO.       RUMER PATTERN  
    1           1  1   2  2   3  3   4  5   6  7


 MAP FILE IS: /home/brian/qchem/gamess/vb2000/MAP/MAP1000t                                    
 $BRILLMASK WILL OBTAIN PARAMETERS AUTOMATICALLY
 $BRILLMASK FINDS   44 CONDITIONS AND  7 ACTIVE VBOS

 VB-ORBITAL OPTIMIZATION OF GROUP  1 ...
 GROUP =  1  ITER =  1 CMAX =  0.15000000000000
 GROUP =  1  ITER =  2 CMAX =  0.14803040369415
 GROUP =  1  ITER =  3 CMAX =  0.15242282642024
 GROUP =  1  ITER =  4 CMAX =  0.15000000000000
 GROUP =  1  ITER =  5 CMAX =  0.15000000000000
 GROUP =  1  ITER =  6 CMAX =  0.15000000000000
 GROUP =  1  ITER =  7 CMAX =  0.15000000000000
 GROUP =  1  ITER =  8 CMAX =  0.15000000000000
 GROUP =  1  ITER =  9 CMAX =  0.15000000000000
 GROUP =  1  ITER = 10 CMAX =  0.13221768637753
 GROUP =  1  ITER = 11 CMAX =  0.07457067328258
 GROUP =  1  ITER = 12 CMAX =  0.03220568481444
 GROUP =  1  ITER = 13 CMAX =  0.01149963677024
 GROUP =  1  ITER = 14 CMAX =  0.00417219243189
 GROUP =  1  ITER = 15 CMAX =  0.00173559846232
 VBSCF NOT CONVERGED. CMAX =  0.00173559846232 AFTER  16 ITERATIONS

 ENERGY AND DIFF OF MACROITER    1 =    -75.76460250    -75.76460250

 VB-ORBITAL OPTIMIZATION OF GROUP  1 ...
 GROUP =  1  ITER =  1 CMAX =  0.15000000000000
 GROUP =  1  ITER =  2 CMAX =  0.15000000000000
 GROUP =  1  ITER =  3 CMAX =  0.09253850660273
 GROUP =  1  ITER =  4 CMAX =  0.03610482151446
 GROUP =  1  ITER =  5 CMAX =  0.00598116365599
 GROUP =  1  ITER =  6 CMAX =  0.00084370747298

 ENERGY AND DIFF OF MACROITER    2 =    -75.85464833     -0.09004583

 VB-ORBITAL OPTIMIZATION OF GROUP  1 ...
 GROUP =  1  ITER =  1 CMAX =  0.00029399375387

 ENERGY AND DIFF OF MACROITER    3 =    -75.85464850     -0.00000017

 VB-ORBITAL OPTIMIZATION OF GROUP  1 ...
 GROUP =  1  ITER =  1 CMAX =  0.00010252408260


 OVERLAP MATRIX OF VB ORBITALS FOR GROUP   1

        1      2      3      4      5      6      7      8      9     10     11     12
 =======================================================================================
   1 1.0000
   2 0.4709 1.0000
   3 0.4709 0.4577 1.0000
   4 0.0340-0.3414-0.3414 1.0000
   5 0.0409 0.1968 0.1968 0.3462 1.0000
   6 0.0340-0.3414-0.3414 0.3829-0.0267 1.0000
   7 0.0409 0.1968 0.1968-0.0267 0.2196 0.3462 1.0000
   8 0.9452 0.5047 0.5047 0.0051 0.0579 0.0051 0.0579 1.0000
   9 0.1390 0.6238 0.6238-0.0765 0.5652-0.0765 0.5652 0.1944 1.0000
  10-0.0000-0.0000 0.0000 0.3758 0.4959-0.3758-0.4959-0.0000-0.0000 1.0000
  11 0.0000 0.3868-0.3868 0.0000 0.0000-0.0000 0.0000-0.0000 0.0000 0.0000 1.0000
  12 0.0216-0.2865-0.2865 0.5992 0.3436 0.5992 0.3436-0.0000-0.0000-0.0000-0.0000 1.0000
  13 0.0256 0.1129 0.1129 0.3709 0.9386-0.0164 0.1089 0.0352 0.4101 0.4567 0.0000 0.3164
  14 0.0256 0.1129 0.1129-0.0164 0.1089 0.3709 0.9386 0.0352 0.4101-0.4567 0.0000 0.3164

       13     14
 =================
  13 1.0000
  14 0.0352 1.0000

 ENERGY AND DIFF OF MACROITER    4 =    -75.85464851     -0.00000001


 MULLIKEN CHARGES ON ATOMS
 -------------------------
  ATOM             CHARGE 

    1             0.00000
    2             0.00000
    3            -0.00000

 -------------------------


 ORBITALS OF EACH ELECTRON GROUP IN AO BASIS: ORBITAL(GROUP)
 ===========================================================================
    Orbital#             1         2         3         4         5         6
      Group#             1         1         1         1         1         1
 ---------------------------------------------------------------------------
  AO# LABELS
   1  1  O     s   0.58736   0.21053   0.21053   0.01193  -0.00000   0.01193
   2  1  O     s   0.47072   0.11676   0.11676   0.00515  -0.00000   0.00515
   3  1  O     s  -0.03080   0.36012   0.36012   0.01901   0.00000   0.01901
   4  1  O     s  -0.02313   0.28762   0.28762  -0.09415  -0.00000  -0.09415
   5  1  O     x  -0.00000  -0.00000   0.00000   0.47424   0.00000  -0.47424
   6  1  O     y   0.00000   0.40419  -0.40419   0.00000  -0.00000   0.00000
   7  1  O     z   0.02238  -0.26946  -0.26946   0.66200   0.00000   0.66200
   8  1  O     x  -0.00000  -0.00000   0.00000   0.13582  -0.00000  -0.13582
   9  1  O     y   0.00000   0.18225  -0.18225   0.00000   0.00000  -0.00000
  10  1  O     z   0.01025  -0.15018  -0.15018   0.26422  -0.00000   0.26422
  11  2  H     s  -0.00000  -0.00000  -0.00000  -0.00000   0.61581   0.00000
  12  2  H     s   0.00000   0.00000   0.00000   0.00000   0.47251   0.00000
  13  3  H     s   0.00000   0.00000   0.00000  -0.00000   0.00000  -0.00000
  14  3  H     s  -0.00000   0.00000   0.00000   0.00000   0.00000   0.00000

 ===========================================================================
    Orbital#             7         8         9        10        11        12
      Group#             1         1         1         1         1         1
 ---------------------------------------------------------------------------
  AO# LABELS
   1  1  O     s   0.00000  -0.00000   0.00000  -0.00000   0.00000  -0.00000
   2  1  O     s  -0.00000   1.00000  -0.00000   0.00000  -0.00000   0.00000
   3  1  O     s   0.00000   0.00000   0.00000   0.00000  -0.00000   0.00000
   4  1  O     s  -0.00000  -0.00000   1.00000  -0.00000   0.00000  -0.00000
   5  1  O     x  -0.00000  -0.00000   0.00000   0.00000  -0.00000   0.00000
   6  1  O     y   0.00000   0.00000  -0.00000  -0.00000   0.00000   0.00000
   7  1  O     z   0.00000   0.00000   0.00000   0.00000   0.00000   0.00000
   8  1  O     x  -0.00000   0.00000   0.00000   1.00000   0.00000  -0.00000
   9  1  O     y   0.00000  -0.00000   0.00000   0.00000   1.00000  -0.00000
  10  1  O     z  -0.00000  -0.00000  -0.00000  -0.00000   0.00000   1.00000
  11  2  H     s  -0.00000  -0.00000  -0.00000  -0.00000  -0.00000  -0.00000
  12  2  H     s   0.00000   0.00000   0.00000   0.00000  -0.00000   0.00000
  13  3  H     s   0.61581   0.00000   0.00000   0.00000  -0.00000  -0.00000
  14  3  H     s   0.47251   0.00000   0.00000   0.00000   0.00000   0.00000

 ===========================================================================
    Orbital#            13        14
      Group#             1         1
 ---------------------------------------------------------------------------
  AO# LABELS
   1  1  O     s  -0.00000   0.00000
   2  1  O     s   0.00000  -0.00000
   3  1  O     s   0.00000   0.00000
   4  1  O     s  -0.00000  -0.00000
   5  1  O     x  -0.00000   0.00000
   6  1  O     y  -0.00000   0.00000
   7  1  O     z   0.00000   0.00000
   8  1  O     x   0.00000  -0.00000
   9  1  O     y   0.00000   0.00000
  10  1  O     z  -0.00000  -0.00000
  11  2  H     s   1.00000   0.00000
  12  2  H     s  -0.00000   0.00000
  13  3  H     s   0.00000   1.00000
  14  3  H     s   0.00000   0.00000


 CALCULATION OF POSITION AND EXTENT OF VB ORBITALS

 DEFAULT CENTROIDS AND EXTENTS.

 MOLECULAR GEOMETRY ABOUT CENTER OF MASS

  Atom#   ATOMIC NO.     X        Y        Z
    1         8        0.0000   0.0000  -0.0622
    2         1        0.8018   0.0000   0.4934
    3         1       -0.8018   0.0000   0.4934

 CENTROIDS OF CHARGE FOR EACH VB GROUP & DISTANCES FROM 3 ATOMS

                                                  DISTANCES FROM ATOMS
 Orbital#   Group#       X        Y        Z        1        2        3
    1         1        0.0000   0.0000  -0.0613   0.0009   0.9750   0.9750
    2         1       -0.0000   0.2276  -0.2250   0.2798   1.1004   1.1004
    3         1        0.0000  -0.2276  -0.2250   0.2798   1.1004   1.1004
    4         1       -0.0336  -0.0000  -0.1155   0.0630   1.0338   0.9803
    5         1        0.8018   0.0000   0.4934   0.9755   0.0000   1.6037
    6         1        0.0336   0.0000  -0.1155   0.0630   0.9803   1.0338
    7         1       -0.8018   0.0000   0.4934   0.9755   1.6037   0.0000
    8         1        0.0000   0.0000  -0.0622   0.0000   0.9755   0.9755
    9         1        0.0000   0.0000  -0.0622   0.0000   0.9755   0.9755
   10         1        0.0000   0.0000  -0.0622   0.0000   0.9755   0.9755
   11         1        0.0000   0.0000  -0.0622   0.0000   0.9755   0.9755
   12         1        0.0000   0.0000  -0.0622   0.0000   0.9755   0.9755
   13         1        0.8018   0.0000   0.4934   0.9755   0.0000   1.6037
   14         1       -0.8018   0.0000   0.4934   0.9755   1.6037   0.0000

 EXTENT OF ORBITAL MEASURED BY (<R**2>)

 Orbital#   Group#     <X**2>   <Y**2>   <Z**2>   <R**2> Sqrt<R**2>

    1         1        0.0050   0.0050   0.0052   0.0151   0.1229
    2         1        0.0986   0.1078   0.1063   0.3127   0.5592
    3         1        0.0986   0.1078   0.1063   0.3127   0.5592
    4         1        0.1575   0.1024   0.2445   0.5045   0.7102
    5         1        0.1810   0.1810   0.1810   0.5430   0.7369
    6         1        0.1575   0.1024   0.2445   0.5045   0.7102
    7         1        0.1810   0.1810   0.1810   0.5430   0.7369
    8         1        0.0073   0.0073   0.0073   0.0220   0.1484
    9         1        0.2460   0.2460   0.2460   0.7380   0.8590
   10         1        0.9828   0.3276   0.3276   1.6380   1.2798
   11         1        0.3276   0.9828   0.3276   1.6380   1.2798
   12         1        0.3276   0.3276   0.9828   1.6380   1.2798
   13         1        0.0831   0.0831   0.0831   0.2494   0.4994
   14         1        0.0831   0.0831   0.0831   0.2494   0.4994

 WORDS OF DYNAMIC MEMORY USED IN VB2000 CODE ONLY:       18180
 NOTE THAT THIS IS IN ADDITION TO MEMORY USED BY GAMESS
 PRINTED NEAR END OF OUTPUT. ADD THE TWO AMOUNTS TO GIVE
 THE TOTAL MEMORY USED BY THE JOB

 STATISTICS OF CPU TIMES (SECONDS)
 CPU TIME FOR INITIALIZATION        0.010
 CPU TIME FOR MACROITERATION       29.570
 TOTAL CPU TIME                    29.580

 STEP CPU TIME =    29.63 TOTAL CPU TIME =       29.7 (    0.5 MIN)
 TOTAL WALL CLOCK TIME=       29.8 SECONDS, CPU UTILIZATION IS  99.63%

 **************************************************************
 *                                                            *
 *                  ENDING GAMESS(US) VB2000                  *
 *                                                            *
 *  Properties for individual molecular orbitals are correct  *
 *   only for VB modified orbitals in a Hartree-Fock group.   *
 *                                                            *
 **************************************************************

     ----------------------------------
     PROPERTIES FOR THE VB WAVEFUNCTION
     ----------------------------------

          -----------------
          ENERGY COMPONENTS
          -----------------

         WAVEFUNCTION NORMALIZATION =       1.0000000000

                ONE ELECTRON ENERGY =    -121.2847591356
                TWO ELECTRON ENERGY =      36.4207502501
           NUCLEAR REPULSION ENERGY =       9.0093603723
                                      ------------------
                       TOTAL ENERGY =     -75.8546485132

 ELECTRON-ELECTRON POTENTIAL ENERGY =      36.4207502501
  NUCLEUS-ELECTRON POTENTIAL ENERGY =    -197.2146898870
   NUCLEUS-NUCLEUS POTENTIAL ENERGY =       9.0093603723
                                      ------------------
             TOTAL POTENTIAL ENERGY =    -151.7845792646
               TOTAL KINETIC ENERGY =      75.9299307514
                 VIRIAL RATIO (V/T) =       1.9990085301

          ---------------------------------------
          MULLIKEN AND LOWDIN POPULATION ANALYSES
          ---------------------------------------

     ATOMIC MULLIKEN POPULATION IN EACH MOLECULAR ORBITAL

                      1          2          3          4          5

                  2.000000   2.000000   2.000000   2.000000   2.000000

    1             2.000049   1.729623   1.252266   1.812831   2.000000
    2            -0.000024   0.135189   0.373867   0.093585   0.000000
    3            -0.000024   0.135189   0.373867   0.093585   0.000000

               ----- POPULATIONS IN EACH AO -----
                             MULLIKEN      LOWDIN
              1  O  1  S      1.13215     1.07174
              2  O  1  S      0.86307     0.90786
              3  O  1  S      0.91106     0.83361
              4  O  1  S      0.67076     0.70079
              5  O  1  X      0.76725     0.69670
              6  O  1  Y      1.48005     1.41406
              7  O  1  Z      1.04955     0.98663
              8  O  1  X      0.20813     0.40057
              9  O  1  Y      0.51995     0.58594
             10  O  1  Z      0.39803     0.51900
             11  H  2  S      0.59793     0.55065
             12  H  2  S      0.40207     0.39090
             13  H  3  S      0.59793     0.55065
             14  H  3  S      0.40207     0.39090

          ----- MULLIKEN ATOMIC OVERLAP POPULATIONS -----
          (OFF-DIAGONAL ELEMENTS NEED TO BE MULTIPLIED BY 2)

             1           2           3

    1    7.6294970
    2    0.1852515   0.8389476
    3    0.1852515  -0.0241990   0.8389476

          TOTAL MULLIKEN AND LOWDIN ATOMIC POPULATIONS
       ATOM         MULL.POP.    CHARGE          LOW.POP.     CHARGE
    1 OXYGEN        8.000000    0.000000         8.116891   -0.116891
    2 HYDROGEN      1.000000    0.000000         0.941554    0.058446
    3 HYDROGEN      1.000000    0.000000         0.941554    0.058446

          -------------------------------
          BOND ORDER AND VALENCE ANALYSIS     BOND ORDER THRESHOLD=0.050
          -------------------------------

                   BOND                       BOND                       BOND
  ATOM PAIR DIST  ORDER      ATOM PAIR DIST  ORDER      ATOM PAIR DIST  ORDER
    1   2  0.976  0.715        1   3  0.976  0.715

                       TOTAL       BONDED        FREE
      ATOM            VALENCE     VALENCE     VALENCE
    1 OXYGEN            1.999       1.431       0.568
    2 HYDROGEN          1.000       0.716       0.284
    3 HYDROGEN          1.000       0.716       0.284

          ---------------------
          ELECTROSTATIC MOMENTS
          ---------------------

 POINT   1           X           Y           Z (BOHR)    CHARGE
                 0.000000    0.000000    0.117499        0.00 (A.U.)
         DX          DY          DZ         /D/  (DEBYE)
    -0.000000   -0.000000    1.241318    1.241318
 ...... END OF PROPERTY EVALUATION ......
 STEP CPU TIME =     0.00 TOTAL CPU TIME =       29.7 (    0.5 MIN)
 TOTAL WALL CLOCK TIME=       29.8 SECONDS, CPU UTILIZATION IS  99.63%
               580000  WORDS OF DYNAMIC MEMORY USED
 EXECUTION OF GAMESS TERMINATED NORMALLY Mon Oct 14 07:30:41 2013
 DDI: 263624 bytes (0.3 MB / 0 MWords) used by master data server.

 ----------------------------------------
 CPU timing information for all processes
 ========================================
 0: 29.625 + 0.32 = 29.657
 ----------------------------------------
 ddikick.x: exited gracefully.
unset echo
----- accounting info -----
Files used on the master node titch-64 were:
-rw-r--r-- 1 brian brian    3027 Oct 14 07:30 /scr/brian/exam-vb25.F05
-rw-rw-r-- 1 brian brian  180016 Oct 14 07:30 /scr/brian/exam-vb25.F08
-rw-rw-r-- 1 brian brian 1505120 Oct 14 07:30 /scr/brian/exam-vb25.F10
-rw-rw-r-- 1 brian brian     848 Oct 14 07:30 /scr/brian/exam-vb25.TEMP02
-rw-rw-r-- 1 brian brian     848 Oct 14 07:30 /scr/brian/exam-vb25.TEMP03
-rw-rw-r-- 1 brian brian   44528 Oct 14 07:30 /scr/brian/exam-vb25.TEMP04
-rw-rw-r-- 1 brian brian    2916 Oct 14 07:30 /scr/brian/exam-vb25.V80
-rw-rw-r-- 1 brian brian       0 Oct 14 07:30 /scr/brian/exam-vb25.V82
-rw-rw-r-- 1 brian brian       0 Oct 14 07:30 /scr/brian/exam-vb25.V83
-rw-rw-r-- 1 brian brian    2672 Oct 14 07:30 /scr/brian/exam-vb25.V84
-rw-rw-r-- 1 brian brian   90752 Oct 14 07:30 /scr/brian/exam-vb25.V85
-rw-rw-r-- 1 brian brian  491480 Oct 14 07:30 /scr/brian/exam-vb25.V86
-rw-rw-r-- 1 brian brian  294888 Oct 14 07:30 /scr/brian/exam-vb25.V87
-rw-rw-r-- 1 brian brian   34232 Oct 14 07:30 /scr/brian/exam-vb25.V88
-rw-rw-r-- 1 brian brian       0 Oct 14 07:30 /scr/brian/exam-vb25.V89
ls: No match.
ls: No match.
ls: No match.
Mon Oct 14 07:30:44 EST 2013
0.076u 0.020s 0:32.92 0.2%	0+0k 8+24io 0pf+0w
