----- GAMESS execution script 'rungms' -----
This job is running on host titch-64
under operating system Linux at Mon Oct 14 07:26:58 EST 2013
Available scratch disk space (Kbyte units) at beginning of the job is
Filesystem     1K-blocks      Used Available Use% Mounted on
/dev/sda1      945022356 138253500 758764504  16% /
GAMESS temporary binary files will be written to /scr/brian
GAMESS supplementary output files will be written to /home/brian/scr
Copying input file exam-vb03.inp to your run's scratch directory...
cp tests/exam-vb03.inp /scr/brian/exam-vb03.F05
unset echo
/home/brian/qchem/gamess/ddikick.x /home/brian/qchem/gamess/gamess.01.x exam-vb03 -ddi 1 1 titch-64 -scr /scr/brian

 Distributed Data Interface kickoff program.
 Initiating 1 compute processes on 1 nodes to run the following command:
 /home/brian/qchem/gamess/gamess.01.x exam-vb03 

          ******************************************************
          *         GAMESS VERSION =  1 MAY 2013 (R1)          *
          *             FROM IOWA STATE UNIVERSITY             *
          * M.W.SCHMIDT, K.K.BALDRIDGE, J.A.BOATZ, S.T.ELBERT, *
          *   M.S.GORDON, J.H.JENSEN, S.KOSEKI, N.MATSUNAGA,   *
          *          K.A.NGUYEN, S.J.SU, T.L.WINDUS,           *
          *       TOGETHER WITH M.DUPUIS, J.A.MONTGOMERY       *
          *         J.COMPUT.CHEM.  14, 1347-1363(1993)        *
          **************** 64 BIT LINUX VERSION ****************

  SINCE 1993, STUDENTS AND POSTDOCS WORKING AT IOWA STATE UNIVERSITY
  AND ALSO IN THEIR VARIOUS JOBS AFTER LEAVING ISU HAVE MADE IMPORTANT
  CONTRIBUTIONS TO THE CODE:
     IVANA ADAMOVIC, CHRISTINE AIKENS, YURI ALEXEEV, POOJA ARORA,
     ANDREY ASADCHEV, ROB BELL, PRADIPTA BANDYOPADHYAY, JONATHAN BENTZ,
     BRETT BODE, GALINA CHABAN, WEI CHEN, CHEOL HO CHOI, PAUL DAY,
     ALBERT DEFUSCO, TIM DUDLEY, DMITRI FEDOROV, GRAHAM FLETCHER,
     MARK FREITAG, KURT GLAESEMANN, DAN KEMP, GRANT MERRILL,
     NORIYUKI MINEZAWA, JONATHAN MULLIN, TAKESHI NAGATA,
     SEAN NEDD, HEATHER NETZLOFF, BOSILJKA NJEGIC, RYAN OLSON, MIKE PAK,
     JIM SHOEMAKER, LYUDMILA SLIPCHENKO, SAROM SOK, JIE SONG,
     TETSUYA TAKETSUGU, SIMON WEBB, SOOHAENG YOO, FEDERICO ZAHARIEV

  ADDITIONAL CODE HAS BEEN PROVIDED BY COLLABORATORS IN OTHER GROUPS:
     IOWA STATE UNIVERSITY:
          JOE IVANIC, LAIMUTIS BYTAUTAS, KLAUS RUEDENBERG
     UNIVERSITY OF TOKYO: KIMIHIKO HIRAO, TAKAHITO NAKAJIMA,
          TAKAO TSUNEDA, MUNEAKI KAMIYA, SUSUMU YANAGISAWA,
          KIYOSHI YAGI, MAHITO CHIBA, SEIKEN TOKURA, NAOAKI KAWAKAMI
     UNIVERSITY OF AARHUS: FRANK JENSEN
     UNIVERSITY OF IOWA: VISVALDAS KAIRYS, HUI LI
     NATIONAL INST. OF STANDARDS AND TECHNOLOGY: WALT STEVENS, DAVID GARMER
     UNIVERSITY OF PISA: BENEDETTA MENNUCCI, JACOPO TOMASI
     UNIVERSITY OF MEMPHIS: HENRY KURTZ, PRAKASHAN KORAMBATH
     UNIVERSITY OF ALBERTA: TOBY ZENG, MARIUSZ KLOBUKOWSKI
     UNIVERSITY OF NEW ENGLAND: MARK SPACKMAN
     MIE UNIVERSITY: HIROAKI UMEDA
     MICHIGAN STATE UNIVERSITY:
          KAROL KOWALSKI, MARTA WLOCH, JEFFREY GOUR, JESSE LUTZ,
          WEI LI, PIOTR PIECUCH
     UNIVERSITY OF SILESIA: MONIKA MUSIAL, STANISLAW KUCHARSKI
     FACULTES UNIVERSITAIRES NOTRE-DAME DE LA PAIX:
          OLIVIER QUINET, BENOIT CHAMPAGNE
     UNIVERSITY OF CALIFORNIA - SANTA BARBARA: BERNARD KIRTMAN
     INSTITUTE FOR MOLECULAR SCIENCE:
          KAZUYA ISHIMURA, MICHIO KATOUDA, AND SHIGERU NAGASE
     UNIVERSITY OF NOTRE DAME: DAN CHIPMAN
     KYUSHU UNIVERSITY:
          HARUYUKI NAKANO,
          FENG LONG GU, JACEK KORCHOWIEC, MARCIN MAKOWSKI, AND YURIKO AOKI,
          HIROTOSHI MORI AND EISAKU MIYOSHI
     PENNSYLVANIA STATE UNIVERSITY:
          TZVETELIN IORDANOV, CHET SWALINA, JONATHAN SKONE,
          SHARON HAMMES-SCHIFFER
     WASEDA UNIVERSITY:
          MASATO KOBAYASHI, TOMOKO AKAMA, TSUGUKI TOUMA,
          TAKESHI YOSHIKAWA, YASUHIRO IKABATA, HIROMI NAKAI
     NANJING UNIVERSITY: SHUHUA LI
     UNIVERSITY OF NEBRASKA:
          PEIFENG SU, DEJUN SI, NANDUN THELLAMUREGE, YALI WANG, HUI LI
     UNIVERSITY OF ZURICH:
          ROBERTO PEVERATI, KIM BALDRIDGE
     N. COPERNICUS UNIVERSITY AND JACKSON STATE UNIVERSITY:
          MARIA BARYSZ

 EXECUTION OF GAMESS BEGUN Mon Oct 14 07:26:58 2013

            ECHO OF THE FIRST FEW INPUT CARDS -
 INPUT CARD>! GAMESS/VB2000 Test 3.                                                         
 INPUT CARD>! This run is a standard VB2000 run for a closed shell case.                    
 INPUT CARD>!                                                                               
 INPUT CARD>! Note that the data has been entered with no symmetry.                         
 INPUT CARD>!                                                                               
 INPUT CARD>! The final RHF energy is:=                                                     
 INPUT CARD>!                                                                               
 INPUT CARD>!  RHF ENERGY IS -74.9630286444 AFTER  11 ITERATIONS                            
 INPUT CARD>!                                                                               
 INPUT CARD>! The VB final energy is:-                                                      
 INPUT CARD>!                                                                               
 INPUT CARD>! ENERGY AND DIFF OF MACROITER   18 =    -75.00340273     -0.00000001           
 INPUT CARD>!                                                                               
 INPUT CARD>! and the VB and HF dipole moments are 1.6356 and 1.7253 respectively.          
 INPUT CARD>!                                                                               
 INPUT CARD>! Note that the populations in each AO, the Mulliken atomic overlap             
 INPUT CARD>! populations and the total Mulliken and Lowdin atomic populations              
 INPUT CARD>! are correct for the VB wavefunction, but that the populations in              
 INPUT CARD>! each MO refer to the Hartree-Fock MOs, but include the changes to             
 INPUT CARD>| Hartree-Fock orbitals in a HF group (in this example, MOs 1 - 3)              
 INPUT CARD>! due to the average field of the VB part of the total wavefunction.            
 INPUT CARD>! Populations of MOs that are part of the VB groups (in this example,           
 INPUT CARD>! MOs 4 & 5) remain the original HF populations.                                
 INPUT CARD>!                                                                               
 INPUT CARD>! This example also tests the PLTORB, MOLPLT, MOLDEN, CUBE and DENSCUBE         
 INPUT CARD>! visualisaton routines. See the DOC/tests.README for details. CUBE and         
 INPUT CARD>! DENSCUBE use 40 points, which is less than optimal, particularly              
 INPUT CARD>! for the core orbital, which would be rarely included in CUBE data.            
 INPUT CARD>! You might like to raise the number of grid point in each direction            
 INPUT CARD>! from 40 to a more realistic 80 or 100.                                        
 INPUT CARD>!                                                                               
 INPUT CARD> $CONTRL SCFTYP=RHF COORD=UNIQUE VBTYP=VB2000                                   
 INPUT CARD>   MOLPLT=.TRUE. PLTORB=.T. AIMPAC=.T.                                          
 INPUT CARD> $END                                                                           
 INPUT CARD> $SYSTEM TIMLIM=20 MEMORY=2000000 $END                                          
 INPUT CARD> $BASIS GBASIS=STO NGAUSS=3 $END                                                
 INPUT CARD> $GUESS  GUESS=HUCKEL $END                                                      
 INPUT CARD> $DATA                                                                          
 INPUT CARD>Water STO-3G                                                                    
 INPUT CARD>C1                                                                              
 INPUT CARD>OXYGEN    8.0    0.0000000000    0.0000000000   0.0000000000                    
 INPUT CARD>HYDROGEN  1.0    0.0000000000    0.7572153434  -0.5865355237                    
 INPUT CARD>HYDROGEN  1.0    0.0000000000   -0.7572153434  -0.5865355237                    
 INPUT CARD> $END                                                                           
 INPUT CARD> $VB2000                                                                        
 INPUT CARD>#! VB(4)/STO-3G PRINTALL                                                        
 INPUT CARD>                                                                                
 INPUT CARD>Water                                                                           
 INPUT CARD>                                                                                
 INPUT CARD>0 1                                                                             
    2000000 WORDS OF MEMORY AVAILABLE

     BASIS OPTIONS
     -------------
     GBASIS=STO          IGAUSS=       3      POLAR=NONE    
     NDFUNC=       0     NFFUNC=       0     DIFFSP=       F
     NPFUNC=       0      DIFFS=       F     BASNAM=        


     RUN TITLE
     ---------
 Water STO-3G                                                                    

 THE POINT GROUP OF THE MOLECULE IS C1      
 THE ORDER OF THE PRINCIPAL AXIS IS     0

 ATOM      ATOMIC                      COORDINATES (BOHR)
           CHARGE         X                   Y                   Z
 OXYGEN      8.0     0.0000000000        0.0000000000        0.0000000000
 HYDROGEN    1.0     0.0000000000        1.4309295127       -1.1083914219
 HYDROGEN    1.0     0.0000000000       -1.4309295127       -1.1083914219

          INTERNUCLEAR DISTANCES (ANGS.)
          ------------------------------

                1 OXYG       2 HYDR       3 HYDR  

   1 OXYG    0.0000000    0.9578095 *  0.9578095 *
   2 HYDR    0.9578095 *  0.0000000    1.5144307 *
   3 HYDR    0.9578095 *  1.5144307 *  0.0000000  

  * ... LESS THAN  3.000


     ATOMIC BASIS SET
     ----------------
 THE CONTRACTED PRIMITIVE FUNCTIONS HAVE BEEN UNNORMALIZED
 THE CONTRACTED BASIS FUNCTIONS ARE NOW NORMALIZED TO UNITY

  SHELL TYPE  PRIMITIVE        EXPONENT          CONTRACTION COEFFICIENT(S)

 OXYGEN    

      1   S       1           130.7093214    0.154328967295
      1   S       2            23.8088661    0.535328142282
      1   S       3             6.4436083    0.444634542185

      2   L       4             5.0331513   -0.099967229187    0.155916274999
      2   L       5             1.1695961    0.399512826089    0.607683718598
      2   L       6             0.3803890    0.700115468880    0.391957393099

 HYDROGEN  

      3   S       7             3.4252509    0.154328967295
      3   S       8             0.6239137    0.535328142282
      3   S       9             0.1688554    0.444634542185

 HYDROGEN  

      4   S      10             3.4252509    0.154328967295
      4   S      11             0.6239137    0.535328142282
      4   S      12             0.1688554    0.444634542185

 TOTAL NUMBER OF BASIS SET SHELLS             =    4
 NUMBER OF CARTESIAN GAUSSIAN BASIS FUNCTIONS =    7
 NUMBER OF ELECTRONS                          =   10
 CHARGE OF MOLECULE                           =    0
 SPIN MULTIPLICITY                            =    1
 NUMBER OF OCCUPIED ORBITALS (ALPHA)          =    5
 NUMBER OF OCCUPIED ORBITALS (BETA )          =    5
 TOTAL NUMBER OF ATOMS                        =    3
 THE NUCLEAR REPULSION ENERGY IS        9.1892146195

     $CONTRL OPTIONS
     ---------------
 SCFTYP=RHF          RUNTYP=ENERGY       EXETYP=RUN     
 MPLEVL=       0     CITYP =NONE         CCTYP =NONE         VBTYP =VB2000  
 DFTTYP=NONE         TDDFT =NONE    
 MULT  =       1     ICHARG=       0     NZVAR =       0     COORD =UNIQUE  
 PP    =NONE         RELWFN=NONE         LOCAL =NONE         NUMGRD=       F
 ISPHER=      -1     NOSYM =       0     MAXIT =      30     UNITS =ANGS    
 PLTORB=       T     MOLPLT=       T     AIMPAC=       T     FRIEND=        
 NPRINT=       7     IREST =       0     GEOM  =INPUT   
 NORMF =       0     NORMP =       0     ITOL  =      20     ICUT  =       9
 INTTYP=BEST         GRDTYP=BEST         QMTTOL= 1.0E-06

     $SYSTEM OPTIONS
     ---------------
  REPLICATED MEMORY=     2000000 WORDS (ON EVERY NODE).
 DISTRIBUTED MEMDDI=           0 MILLION WORDS IN AGGREGATE,
 MEMDDI DISTRIBUTED OVER   1 PROCESSORS IS           0 WORDS/PROCESSOR.
 TOTAL MEMORY REQUESTED ON EACH PROCESSOR=     2000000 WORDS.
 TIMLIM=          20.00 MINUTES, OR       0.0 DAYS.
 PARALL= F  BALTYP=  DLB     KDIAG=    0  COREFL= F
 MXSEQ2=     300 MXSEQ3=     150

          ----------------
          PROPERTIES INPUT
          ----------------

     MOMENTS            FIELD           POTENTIAL          DENSITY
 IEMOM =       1   IEFLD =       0   IEPOT =       0   IEDEN =       0
 WHERE =COMASS     WHERE =NUCLEI     WHERE =NUCLEI     WHERE =NUCLEI  
 OUTPUT=BOTH       OUTPUT=BOTH       OUTPUT=BOTH       OUTPUT=BOTH    
 IEMINT=       0   IEFINT=       0                     IEDINT=       0
                                                       MORB  =       0
          EXTRAPOLATION IN EFFECT
 ORBITAL PRINTING OPTION: NPREO=     1     7     2     1

     -------------------------------
     INTEGRAL TRANSFORMATION OPTIONS
     -------------------------------
     NWORD  =            0
     CUTOFF = 1.0E-09     MPTRAN =       0
     DIRTRF =       F     AOINTS =DUP     

          ----------------------
          INTEGRAL INPUT OPTIONS
          ----------------------
 NOPK  =       1 NORDER=       0 SCHWRZ=       F

     ------------------------------------------
     THE POINT GROUP IS C1 , NAXIS= 0, ORDER= 1
     ------------------------------------------

     DIMENSIONS OF THE SYMMETRY SUBSPACES ARE
 A   =    7

 ..... DONE SETTING UP THE RUN .....
 STEP CPU TIME =     0.01 TOTAL CPU TIME =        0.0 (    0.0 MIN)
 TOTAL WALL CLOCK TIME=        0.0 SECONDS, CPU UTILIZATION IS  50.00%

          ********************
          1 ELECTRON INTEGRALS
          ********************
 ...... END OF ONE-ELECTRON INTEGRALS ......
 STEP CPU TIME =     0.00 TOTAL CPU TIME =        0.0 (    0.0 MIN)
 TOTAL WALL CLOCK TIME=        0.0 SECONDS, CPU UTILIZATION IS  50.00%

          -------------
          GUESS OPTIONS
          -------------
          GUESS =HUCKEL            NORB  =       0          NORDER=       0
          MIX   =       F          PRTMO =       F          PUNMO =       F
          TOLZ  = 1.0E-08          TOLE  = 1.0E-05
          SYMDEN=       F          PURIFY=       F

 INITIAL GUESS ORBITALS GENERATED BY HUCKEL   ROUTINE.
 HUCKEL GUESS REQUIRES      2569 WORDS.

 SYMMETRIES FOR INITIAL GUESS ORBITALS FOLLOW.   BOTH SET(S).
     5 ORBITALS ARE OCCUPIED (    1 CORE ORBITALS).
     2=A        3=A        4=A        5=A        6=A        7=A   
 ...... END OF INITIAL ORBITAL SELECTION ......
 STEP CPU TIME =     0.00 TOTAL CPU TIME =        0.0 (    0.0 MIN)
 TOTAL WALL CLOCK TIME=        0.0 SECONDS, CPU UTILIZATION IS  50.00%

                    ----------------------
                    AO INTEGRAL TECHNOLOGY
                    ----------------------
     S,P,L SHELL ROTATED AXIS INTEGRALS, REPROGRAMMED BY
        KAZUYA ISHIMURA (IMS) AND JOSE SIERRA (SYNSTAR).
     S,P,D,L SHELL ROTATED AXIS INTEGRALS PROGRAMMED BY
        KAZUYA ISHIMURA (INSTITUTE FOR MOLECULAR SCIENCE).
     S,P,D,F,G SHELL TO TOTAL QUARTET ANGULAR MOMENTUM SUM 5,
        ERIC PROGRAM BY GRAHAM FLETCHER (ELORET AND NASA ADVANCED
        SUPERCOMPUTING DIVISION, AMES RESEARCH CENTER).
     S,P,D,F,G,L SHELL GENERAL RYS QUADRATURE PROGRAMMED BY
        MICHEL DUPUIS (PACIFIC NORTHWEST NATIONAL LABORATORY).

          --------------------
          2 ELECTRON INTEGRALS
          --------------------

 THE -PK- OPTION IS OFF, THE INTEGRALS ARE NOT IN SUPERMATRIX FORM.
 STORING   15000 INTEGRALS/RECORD ON DISK, USING 12 BYTES/INTEGRAL.
 TWO ELECTRON INTEGRAL EVALUATION REQUIRES   89366 WORDS OF MEMORY.
 II,JST,KST,LST =  1  1  1  1 NREC =         1 INTLOC =    1
 II,JST,KST,LST =  2  1  1  1 NREC =         1 INTLOC =    2
 II,JST,KST,LST =  3  1  1  1 NREC =         1 INTLOC =   34
 II,JST,KST,LST =  4  1  1  1 NREC =         1 INTLOC =  109
 TOTAL NUMBER OF NONZERO TWO-ELECTRON INTEGRALS =                 228
          1 INTEGRAL RECORDS WERE STORED ON DISK FILE  8.
  ...... END OF TWO-ELECTRON INTEGRALS .....
 STEP CPU TIME =     0.02 TOTAL CPU TIME =        0.0 (    0.0 MIN)
 TOTAL WALL CLOCK TIME=        0.0 SECONDS, CPU UTILIZATION IS  75.00%

          --------------------------
                 RHF SCF CALCULATION
          --------------------------

     NUCLEAR ENERGY =         9.1892146195
     MAXIT =   30     NPUNCH=    2
     EXTRAP=T  DAMP=F  SHIFT=F  RSTRCT=F  DIIS=F  DEM=F  SOSCF=F
     DENSITY MATRIX CONV=  1.00E-05
     MEMORY REQUIRED FOR RHF ITERS=     30441 WORDS.

 ITER EX DEM     TOTAL ENERGY        E CHANGE  DENSITY CHANGE    DIIS ERROR
   1  0  0      -74.7971658034   -74.7971658034   0.600125587   0.000000000
   2  1  0      -74.9496032744    -0.1524374710   0.182106101   0.000000000
   3  2  0      -74.9615728174    -0.0119695430   0.059940932   0.000000000
   4  3  0      -74.9628229606    -0.0012501432   0.020350363   0.000000000
   5  0  0      -74.9629942716    -0.0001713110   0.021682075   0.000000000
   6  1  0      -74.9629973083    -0.0000030367   0.005612289   0.000000000
   7  2  0      -74.9630227577    -0.0000254494   0.002505909   0.000000000
   8  3  0      -74.9630275378    -0.0000047801   0.001082459   0.000000000
   9  0  0      -74.9630284364    -0.0000008986   0.000828337   0.000000000
  10  1  0      -74.9630286444    -0.0000002080   0.000001489   0.000000000
  11  2  0      -74.9630286444    -0.0000000000   0.000000486   0.000000000

          -----------------
          DENSITY CONVERGED
          -----------------
     TIME TO FORM FOCK OPERATORS=       0.0 SECONDS (       0.0 SEC/ITER)
     TIME TO SOLVE SCF EQUATIONS=       0.0 SECONDS (       0.0 SEC/ITER)

 FINAL RHF ENERGY IS      -74.9630286444 AFTER  11 ITERATIONS

          ------------
          EIGENVECTORS
          ------------

                      1          2          3          4          5
                  -20.2419    -1.2681    -0.6175    -0.4530    -0.3912
                     A          A          A          A          A   
    1  O  1  S    0.994131  -0.232806   0.000000  -0.103172   0.000000
    2  O  1  S    0.026549   0.833706   0.000000   0.536794   0.000000
    3  O  1  X    0.000000   0.000000   0.000000  -0.000000   1.000000
    4  O  1  Y    0.000000   0.000000   0.606480  -0.000000   0.000000
    5  O  1  Z   -0.004342  -0.129432   0.000000   0.776477   0.000000
    6  H  2  S   -0.005965   0.158673   0.445066  -0.278119   0.000000
    7  H  3  S   -0.005965   0.158673  -0.445066  -0.278119   0.000000

                      6          7
                    0.6051     0.7416
                     A          A   
    1  O  1  S   -0.132286  -0.000000
    2  O  1  S    0.883597  -0.000000
    3  O  1  X   -0.000000  -0.000000
    4  O  1  Y   -0.000000   0.990128
    5  O  1  Z   -0.742510  -0.000000
    6  H  2  S   -0.796671  -0.838170
    7  H  3  S   -0.796671   0.838170
 ...... END OF RHF CALCULATION ......
 STEP CPU TIME =     0.00 TOTAL CPU TIME =        0.0 (    0.0 MIN)
 TOTAL WALL CLOCK TIME=        0.0 SECONDS, CPU UTILIZATION IS  75.00%

     ----------------------------------------------------------------
     PROPERTY VALUES FOR THE RHF   SELF-CONSISTENT FIELD WAVEFUNCTION
     ----------------------------------------------------------------

          -----------------
          ENERGY COMPONENTS
          -----------------

         WAVEFUNCTION NORMALIZATION =       1.0000000000

                ONE ELECTRON ENERGY =    -122.3608474293
                TWO ELECTRON ENERGY =      38.2086041654
           NUCLEAR REPULSION ENERGY =       9.1892146195
                                      ------------------
                       TOTAL ENERGY =     -74.9630286444

 ELECTRON-ELECTRON POTENTIAL ENERGY =      38.2086041654
  NUCLEUS-ELECTRON POTENTIAL ENERGY =    -196.9483338170
   NUCLEUS-NUCLEUS POTENTIAL ENERGY =       9.1892146195
                                      ------------------
             TOTAL POTENTIAL ENERGY =    -149.5505150321
               TOTAL KINETIC ENERGY =      74.5874863877
                 VIRIAL RATIO (V/T) =       2.0050349231

  ...... PI ENERGY ANALYSIS ......

 ENERGY ANALYSIS:
            FOCK ENERGY=    -45.9436391437
          BARE H ENERGY=   -122.3608474293
     ELECTRONIC ENERGY =    -84.1522432865
         KINETIC ENERGY=     74.5874863877
          N-N REPULSION=      9.1892146195
           TOTAL ENERGY=    -74.9630286670
        SIGMA PART(1+2)=    -76.3038658202
               (K,V1,2)=     69.5300239357   -176.9765889685     31.1426992126
           PI PART(1+2)=     -7.8483774663
               (K,V1,2)=      5.0574624520    -19.9717448485      7.0659049301
  SIGMA SKELETON, ERROR=    -67.1146512007      0.0000000000
             MIXED PART= 0.00000E+00 0.00000E+00 0.00000E+00 0.00000E+00
 ...... END OF PI ENERGY ANALYSIS ......

          ---------------------------------------
          MULLIKEN AND LOWDIN POPULATION ANALYSES
          ---------------------------------------

     ATOMIC MULLIKEN POPULATION IN EACH MOLECULAR ORBITAL

                      1          2          3          4          5

                  2.000000   2.000000   2.000000   2.000000   2.000000

    1             2.001426   1.611113   1.071296   1.681879   2.000000
    2            -0.000713   0.194444   0.464352   0.159061   0.000000
    3            -0.000713   0.194444   0.464352   0.159061   0.000000

               ----- POPULATIONS IN EACH AO -----
                             MULLIKEN      LOWDIN
              1  O  1  S      1.99761     1.99602
              2  O  1  S      1.82966     1.67607
              3  O  1  X      2.00000     2.00000
              4  O  1  Y      1.07130     1.10075
              5  O  1  Z      1.46715     1.48017
              6  H  2  S      0.81714     0.87350
              7  H  3  S      0.81714     0.87350

          ----- MULLIKEN ATOMIC OVERLAP POPULATIONS -----
          (OFF-DIAGONAL ELEMENTS NEED TO BE MULTIPLIED BY 2)

             1           2           3

    1    7.8379108
    2    0.2639012   0.6012941
    3    0.2639012  -0.0480520   0.6012941

          TOTAL MULLIKEN AND LOWDIN ATOMIC POPULATIONS
       ATOM         MULL.POP.    CHARGE          LOW.POP.     CHARGE
    1 OXYGEN        8.365713   -0.365713         8.253001   -0.253001
    2 HYDROGEN      0.817143    0.182857         0.873500    0.126500
    3 HYDROGEN      0.817143    0.182857         0.873500    0.126500

          -------------------------------
          BOND ORDER AND VALENCE ANALYSIS     BOND ORDER THRESHOLD=0.050
          -------------------------------

                   BOND                       BOND                       BOND
  ATOM PAIR DIST  ORDER      ATOM PAIR DIST  ORDER      ATOM PAIR DIST  ORDER
    1   2  0.958  0.954        1   3  0.958  0.954

                       TOTAL       BONDED        FREE
      ATOM            VALENCE     VALENCE     VALENCE
    1 OXYGEN            1.908       1.908      -0.000
    2 HYDROGEN          0.967       0.967      -0.000
    3 HYDROGEN          0.967       0.967      -0.000

          ---------------------
          ELECTROSTATIC MOMENTS
          ---------------------

 POINT   1           X           Y           Z (BOHR)    CHARGE
                 0.000000    0.000000   -0.124046        0.00 (A.U.)
         DX          DY          DZ         /D/  (DEBYE)
     0.000000   -0.000000   -1.725288    1.725288
 ...... END OF PROPERTY EVALUATION ......
 STEP CPU TIME =     0.00 TOTAL CPU TIME =        0.0 (    0.0 MIN)
 TOTAL WALL CLOCK TIME=        0.0 SECONDS, CPU UTILIZATION IS  75.00%

 **************************************************************
 *                                                            *
 *         ENTERING VB2000 INTERFACED INTO GAMESS(US)         *
 *                                                            *
 **************************************************************

 **************************************************************
 *                                                            *
 *                        V B 2 0 0 0                         *
 *                                                            *
 *       An ab initio Valence-Bond Program Based on the       *
 *           Generalized Product Function Method and          *
 *                   the Algebrant Algorithm                  *
 *                                                            *
 *                   Version 2.7 October 2013                 *
 *                      GAMESS(US) Version                    *
 *                     Compiler: gfortran                     *
 *                                                            *
 *         Jiabo Li*, Brian Duke** and Roy McWeeny***         *
 *                                                            *
 *        * SciNet Technologies, 9943 Fieldthorn St.,         *
 *                   San Diego, CA 92127, USA                 *
 *                                                            *
 *  ** Monash University Institute of Pharmaceutical Sciences,*
 *     381 Royal Pde, Parkville, Victoria, 3052, Australia    *
 *                                                            *
 * *** Department of Chemistry, University of Pisa,           *
 *     56100 Pisa, Italy                                      *
 *                                                            *
 *  Reference for the software:                               *
 *     Jiabo Li, Brian Duke, and Roy McWeeny, VB2000 Version  *
 *     2.7, SciNet Technologies, San Diego, CA, 2013          *
 *     URL: http://www.scinetec.com or http://www.vb2000.net  *
 *                                                            *
 *  References for the theory:                                *
 *     General:                                               *
 *     Jiabo Li, and Roy McWeeny, "VB2000: Pushing Valence    *
 *     Bond Theory to New Limits", Int. J. Quantum Chem.,     *
 *     89(2002)208-216.                                       *
 *                                                            *
 *     Spin densities:-                                       *
 *     Jiabo Li, Brian J. Duke, Thomas M. Klapoetke, and Roy  *
 *     McWeeny, Spin-Density of Spin-Free Valence Bond Wave   *
 *     Functions and Its Implementation in VB2000. J. Theor.  *
 *     Comp. Chem. 7(2008)853-867.                            *
 *                                                            *
 *     Spin coupled - n electrons in m orbitals:-             *
 *     Peter B. Karadakov, David L. Cooper, Brian J. Duke,    *
 *     and Jiabo Li, Spin-Coupled Theory for N Electrons in   *
 *     M Orbitals Active Spaces,  J. Phys. Chem. A, 116,      *
 *     7238 - 7244, 2012                                      *
 *                                                            *
 *  Copyright (C) 2000-2013 by SciNet Technologies            *
 **************************************************************

 JOB NAME IS exam-vb03                                                       

 VB2000 DIRECTORY IS: /home/brian/qchem/gamess/vb2000                                                 
 MAXIMUM MEMORY USE IS:     6500000
 THIS IS TAKEN AS THE MAXIMUM OF THE UNUSED MEMORY REQUESTED
 IN GAMESS $SYSTEM BLOCK AND MEMORY REQUESTED IN VB2000 DATA

 Input of molecule
 =================
 #! VB(4)/STO-3G PRINTALL                                                        
                                                                                 
 Title: Water                                                                           

 Charge =  0 Multiplicity =  1

 ATOM      ATOMIC                      COORDINATES (ANGS)
           CHARGE         X                   Y                   Z
 OXYGEN      8.0     0.0000000000        0.0000000000        0.0000000000
 HYDROGEN    1.0     0.0000000000        0.7572153431       -0.5865355234
 HYDROGEN    1.0     0.0000000000       -0.7572153431       -0.5865355234

 Hartree-Fock Energy from Gamess run =     -74.963028644388

 Basis set size =    7

                    PARAMETER LIMIT VALUES
 Max. no. of atoms                    MAXCEN =   200
 Max. no. of basis functions          MAXBFN =   726
 Max. no. of shells                   MAXSHL =   500
 Max. no. of total primitives         MAXEXP =  1000
 Max. no. of primitives per orbital   MAXPRM =    15
 Max. no. of atoms * no. of orbitals  MAXNAB = 72600
 Increase max basis set size by       NEXTRA =    20
 Max. size for Rumer data             MAXST1 = 33334
 Max. no. of orbitals in group        MAXNOB =   200
 Max. no. of CUBE orbitals            MAXCUB =   100
 Max. no. of groups                   MAXGRP =    99

 BASIS IN $BASIS IS STO      WITH IGAUSS = 3

 VBO LIB IS: /home/brian/qchem/gamess/vb2000/VBOLIB/VBOLIBSTO-nG                             

 Molecular orbitals by HF method
 ===============================================================================
 MO#                       1         2         3         4         5         6
 E(a.u.)             -20.242    -1.268    -0.618    -0.453    -0.391     0.605
 -------------------------------------------------------------------------------

   1  1  O     s     0.99413  -0.23281   0.00000   0.10317   0.00000   0.13229
   2  1  O     s     0.02655   0.83371   0.00000  -0.53679   0.00000  -0.88360
   3  1  O     x     0.00000   0.00000   0.00000   0.00000   1.00000   0.00000
   4  1  O     y     0.00000   0.00000   0.60648   0.00000   0.00000   0.00000
   5  1  O     z    -0.00434  -0.12943   0.00000  -0.77648   0.00000   0.74251
   6  2  H     s    -0.00596   0.15867   0.44507   0.27812   0.00000   0.79667
   7  3  H     s    -0.00596   0.15867  -0.44507   0.27812   0.00000   0.79667

 MO#                       7
 E(a.u.)               0.742
 -------------------------------------------------------------------------------

   1  1  O     s     0.00000
   2  1  O     s     0.00000
   3  1  O     x     0.00000
   4  1  O     y    -0.99013
   5  1  O     z     0.00000
   6  2  H     s     0.83817
   7  3  H     s    -0.83817


 Localized molecular orbitals and the bond labels
 ===============================================================================
 LMO#                      1         2         3         4         5
 E(a.u.)             -19.635    -1.385    -0.391    -0.780    -0.780
 Bond Label            1:(0)     1:(1)     1:(2)    3-1(1)    2-1(1)
 -------------------------------------------------------------------------------

   1  1  O     s     1.02261   0.05517  -0.00001   0.04676  -0.04676
   2  1  O     s    -0.14977  -0.94230   0.00001  -0.19178   0.19178
   3  1  O     x     0.00001   0.00001   1.00000   0.00000  -0.00000
   4  1  O     y     0.00000  -0.00000   0.00000   0.42885   0.42885
   5  1  O     z    -0.06596  -0.49286   0.00001   0.43152  -0.43152
   6  2  H     s     0.00002   0.10527  -0.00000   0.10084   0.52858
   7  3  H     s     0.00002   0.10527  -0.00000  -0.52858  -0.10084


 Mulliken population of localized molecular orbitals
 ===============================================================================
 LMO#                      1         2         3         4         5
 E(a.u.)             -19.635    -1.385    -0.391    -0.780    -0.780
 Bond Label            1:(0)     1:(1)     1:(2)    3-1(1)    2-1(1)
 -------------------------------------------------------------------------------

   1         O       2.00000   2.08153   2.00000   1.14209   1.14209
   2         H      -0.00000  -0.04077  -0.00000  -0.01839   0.87630
   3         H      -0.00000  -0.04077  -0.00000   0.87630  -0.01839


 PARTITIONING OF LMOs INTO GROUPS ($LMOGRP)
 =======================================================================
 LMO#     1  2  3  4  5
 Group#   1  1  1  2  2
 Split    0  0  0  1  1




 Initial guess of orbitals
 ===============================================================================
 ORBITAL#                  1         2         3         4         5         6
 Bond Label            1:(0)     1:(1)     1:(2)   1->2(1)   2->1(1)   1->3(1)
 -------------------------------------------------------------------------------

   1  1  O     s     1.02261   0.05517  -0.00001  -0.06886   0.01092  -0.06886
   2  1  O     s    -0.14977  -0.94230   0.00001   0.36377  -0.18598   0.36377
   3  1  O     x     0.00001   0.00001   1.00000  -0.00000  -0.00000  -0.00000
   4  1  O     y     0.00000  -0.00000   0.00000   0.79043  -0.00000  -0.79043
   5  1  O     z    -0.06596  -0.49286   0.00001  -0.52142  -0.09727  -0.52142
   6  2  H     s     0.00002   0.10527  -0.00000  -0.01936   1.04007  -0.01936
   7  3  H     s     0.00002   0.10527  -0.00000  -0.01936   0.02078  -0.01936

 ORBITAL#                  7
 Bond Label          3->1(1)
 -------------------------------------------------------------------------------

   1  1  O     s     0.01092
   2  1  O     s    -0.18598
   3  1  O     x    -0.00000
   4  1  O     y    -0.00000
   5  1  O     z    -0.09727
   6  2  H     s     0.02078
   7  3  H     s     1.04007


      GENERAL CONTROLS ($GENCTL)
 ====================================
 Number of electron groups       =    2
 Maximum macro-iterations        =   20
 Energy threshold           = 10**(- 8)
 Restart calculation(0/1/2)      =    0
 Group#                     1  2
 Num. of electrons          6  4
 Num. of spins              0  0
 Num. of orbitals           3  4
 Method#                    1  2

 SYMBOLIC VB STRUCTURE(S) OF GROUP  2
 STR. NO.       RUMER PATTERN  
    1           1  2   3  4


 MAP FILE IS: /home/brian/qchem/gamess/vb2000/MAP/MAP0400t                                    

 VB-ORBITAL OPTIMIZATION OF GROUP  2 ...
 GROUP =  2  ITER =  1 CMAX =  0.15000000000000
 GROUP =  2  ITER =  2 CMAX =  0.10547188925494
 GROUP =  2  ITER =  3 CMAX =  0.06328675044254
 GROUP =  2  ITER =  4 CMAX =  0.04637643934465
 GROUP =  2  ITER =  5 CMAX =  0.02317436460994
 GROUP =  2  ITER =  6 CMAX =  0.00415504477168
 GROUP =  2  ITER =  7 CMAX =  0.00112891921527
 GROUP =  2  ITER =  8 CMAX =  0.00031717219757

 ENERGY AND DIFF OF MACROITER    1 =    -75.00048267    -75.00048267

 VB-ORBITAL OPTIMIZATION OF GROUP  2 ...
 GROUP =  2  ITER =  1 CMAX =  0.01167890597138
 GROUP =  2  ITER =  2 CMAX =  0.02360767843233
 GROUP =  2  ITER =  3 CMAX =  0.00300530768687
 GROUP =  2  ITER =  4 CMAX =  0.00373380112240
 GROUP =  2  ITER =  5 CMAX =  0.00017113288436

 ENERGY AND DIFF OF MACROITER    2 =    -75.00248616     -0.00200349

 VB-ORBITAL OPTIMIZATION OF GROUP  2 ...
 GROUP =  2  ITER =  1 CMAX =  0.00694154518500
 GROUP =  2  ITER =  2 CMAX =  0.00654211822445
 GROUP =  2  ITER =  3 CMAX =  0.00241056433808
 GROUP =  2  ITER =  4 CMAX =  0.00069466314423

 ENERGY AND DIFF OF MACROITER    3 =    -75.00317110     -0.00068494

 VB-ORBITAL OPTIMIZATION OF GROUP  2 ...
 GROUP =  2  ITER =  1 CMAX =  0.00192953839938
 GROUP =  2  ITER =  2 CMAX =  0.00166126704149
 GROUP =  2  ITER =  3 CMAX =  0.00015495821514

 ENERGY AND DIFF OF MACROITER    4 =    -75.00336203     -0.00019094

 VB-ORBITAL OPTIMIZATION OF GROUP  2 ...
 GROUP =  2  ITER =  1 CMAX =  0.00101518511116
 GROUP =  2  ITER =  2 CMAX =  0.00079841033815

 ENERGY AND DIFF OF MACROITER    5 =    -75.00338635     -0.00002432

 VB-ORBITAL OPTIMIZATION OF GROUP  2 ...
 GROUP =  2  ITER =  1 CMAX =  0.00034315842926

 ENERGY AND DIFF OF MACROITER    6 =    -75.00339541     -0.00000905

 VB-ORBITAL OPTIMIZATION OF GROUP  2 ...
 GROUP =  2  ITER =  1 CMAX =  0.00047794833821

 ENERGY AND DIFF OF MACROITER    7 =    -75.00339901     -0.00000360

 VB-ORBITAL OPTIMIZATION OF GROUP  2 ...
 GROUP =  2  ITER =  1 CMAX =  0.00035733600081

 ENERGY AND DIFF OF MACROITER    8 =    -75.00340074     -0.00000173

 VB-ORBITAL OPTIMIZATION OF GROUP  2 ...
 GROUP =  2  ITER =  1 CMAX =  0.00030725943863

 ENERGY AND DIFF OF MACROITER    9 =    -75.00340164     -0.00000090

 VB-ORBITAL OPTIMIZATION OF GROUP  2 ...
 GROUP =  2  ITER =  1 CMAX =  0.00021357676470

 ENERGY AND DIFF OF MACROITER   10 =    -75.00340212     -0.00000048

 VB-ORBITAL OPTIMIZATION OF GROUP  2 ...
 GROUP =  2  ITER =  1 CMAX =  0.00016980302094

 ENERGY AND DIFF OF MACROITER   11 =    -75.00340239     -0.00000027

 VB-ORBITAL OPTIMIZATION OF GROUP  2 ...
 GROUP =  2  ITER =  1 CMAX =  0.00011763454679

 ENERGY AND DIFF OF MACROITER   12 =    -75.00340254     -0.00000015

 VB-ORBITAL OPTIMIZATION OF GROUP  2 ...
 GROUP =  2  ITER =  1 CMAX =  0.00009137066694

 ENERGY AND DIFF OF MACROITER   13 =    -75.00340262     -0.00000009

 VB-ORBITAL OPTIMIZATION OF GROUP  2 ...
 GROUP =  2  ITER =  1 CMAX =  0.00006384749354

 ENERGY AND DIFF OF MACROITER   14 =    -75.00340267     -0.00000005

 VB-ORBITAL OPTIMIZATION OF GROUP  2 ...
 GROUP =  2  ITER =  1 CMAX =  0.00004910301494

 ENERGY AND DIFF OF MACROITER   15 =    -75.00340270     -0.00000003

 VB-ORBITAL OPTIMIZATION OF GROUP  2 ...
 GROUP =  2  ITER =  1 CMAX =  0.00003460041094

 ENERGY AND DIFF OF MACROITER   16 =    -75.00340272     -0.00000002

 VB-ORBITAL OPTIMIZATION OF GROUP  2 ...
 GROUP =  2  ITER =  1 CMAX =  0.00002640322974

 ENERGY AND DIFF OF MACROITER   17 =    -75.00340273     -0.00000001

 VB-ORBITAL OPTIMIZATION OF GROUP  2 ...
 GROUP =  2  ITER =  1 CMAX =  0.00001867801542


 OVERLAP MATRIX OF VB ORBITALS FOR GROUP   2

        1      2      3      4
 ===============================
   1 1.0000
   2 0.8024 1.0000
   3 0.1671 0.0974 1.0000
   4 0.0974 0.0393 0.8024 1.0000

 ENERGY AND DIFF OF MACROITER   18 =    -75.00340273     -0.00000001


 MULLIKEN CHARGES ON ATOMS
 -------------------------
  ATOM             CHARGE 

    1            -0.34437
    2             0.17218
    3             0.17218

 -------------------------


 ORBITALS OF EACH ELECTRON GROUP IN AO BASIS: ORBITAL(GROUP)
 ===========================================================================
    Orbital#             1         2         3         4         5         6
      Group#             1         1         1         2         2         2
 ---------------------------------------------------------------------------
  AO# LABELS
   1  1  O     s   1.02575   0.02054  -0.00001  -0.05209   0.00795  -0.05209
   2  1  O     s  -0.24028   0.96897  -0.00001   0.17237  -0.21909   0.17237
   3  1  O     x   0.00001   0.00001   1.00000  -0.00000  -0.00000  -0.00000
   4  1  O     y   0.00000  -0.00000   0.00000   0.58289   0.18212  -0.58289
   5  1  O     z  -0.08047   0.27659  -0.00000  -0.69660  -0.32655  -0.69660
   6  2  H     s  -0.00184  -0.01644   0.00000   0.15079   0.87879  -0.02783
   7  3  H     s  -0.00184  -0.01644   0.00000  -0.02783  -0.07348   0.15079

 ===========================================================================
    Orbital#             7
      Group#             2
 ---------------------------------------------------------------------------
  AO# LABELS
   1  1  O     s   0.00795
   2  1  O     s  -0.21909
   3  1  O     x  -0.00000
   4  1  O     y  -0.18212
   5  1  O     z  -0.32655
   6  2  H     s  -0.07348
   7  3  H     s   0.87879

 CREATED FILE FOR MOLPLT ANALYSIS

 CREATED VEC & ORB FILE FOR PLTORB ANALYSIS

 CREATED FILE FOR MOLDEN ANALYSIS


 CUBE FILE HEADERS

  WATER STO-3G                           
 SCF Molecular Orbitals
  -3   -6.000000   -7.430930   -7.108391
  40    0.307692    0.000000    0.000000
  40    0.000000    0.381073    0.000000
  40    0.000000    0.000000    0.336113
   8    8.000000    0.000000    0.000000    0.000000
   1    1.000000    0.000000    1.430930   -1.108391
   1    1.000000    0.000000   -1.430930   -1.108391
   1   1


 NORMALIZATION OF ORBITAL  1 IS:    0.600350
 NORMALIZATION SUGGESTS YOU NEED MORE CUBE POINTS,
 BUT VALUE WITH INNER CORE ELECTRONS CAN BE TOO LOW.
 CUBE FILE FOR ORBITAL   1 CREATED AS exam-vb03-orb-001.cube                                          

 NORMALIZATION OF ORBITAL  2 IS:    0.999277
 CUBE FILE FOR ORBITAL   2 CREATED AS exam-vb03-orb-002.cube                                          

 NORMALIZATION OF ORBITAL  3 IS:    0.999975
 CUBE FILE FOR ORBITAL   3 CREATED AS exam-vb03-orb-003.cube                                          

 NORMALIZATION OF ORBITAL  4 IS:    0.998771
 CUBE FILE FOR ORBITAL   4 CREATED AS exam-vb03-orb-004.cube                                          

 NORMALIZATION OF ORBITAL  5 IS:    1.000034
 CUBE FILE FOR ORBITAL   5 CREATED AS exam-vb03-orb-005.cube                                          

 NORMALIZATION OF ORBITAL  6 IS:    0.998771
 CUBE FILE FOR ORBITAL   6 CREATED AS exam-vb03-orb-006.cube                                          

 NORMALIZATION OF ORBITAL  7 IS:    1.000034
 CUBE FILE FOR ORBITAL   7 CREATED AS exam-vb03-orb-007.cube                                          

 TIME FOR CUBE =   0.580

 DENSITY CUBE FILE HEADERS

  WATER STO-3G                           
 SCF Molecular Orbitals
  -3   -6.000000   -7.430930   -7.108391
  40    0.307692    0.000000    0.000000
  40    0.000000    0.381073    0.000000
  40    0.000000    0.000000    0.336113
   8    8.000000    0.000000    0.000000    0.000000
   1    1.000000    0.000000    1.430930   -1.108391
   1    1.000000    0.000000   -1.430930   -1.108391
   1   1

 DENSITY CUBE FOR GROUP 1

 NORMALIZATION FROM DENSITY IS:     5.199204 FOR   6 ELECTRONS
 NORMALIZATION SUGGESTS YOU NEED MORE CUBE POINTS,
 BUT VALUE WITH INNER CORE ELECTRONS CAN BE TOO LOW.
 DENSITY FILE FOR GROUP   1 CREATED AS exam-vb03-dens-001.cube                                         

 DENSITY CUBE FOR GROUP 2

 NORMALIZATION FROM DENSITY IS:     3.998951 FOR   4 ELECTRONS
 DENSITY FILE FOR GROUP   2 CREATED AS exam-vb03-dens-002.cube                                         

 TOTAL DENSITY CUBE

 NORMALIZATION FROM DENSITY IS:     9.198155 FOR  10 ELECTRONS
 NORMALIZATION SUGGESTS YOU NEED MORE CUBE POINTS,
 BUT VALUE WITH INNER CORE ELECTRONS CAN BE TOO LOW.
 TOTAL DENSITY FILE CREATED AS exam-vb03-dens-tot.cube                                         

 TIME FOR DENSITY CUBES =   0.270

 CALCULATION OF POSITION AND EXTENT OF VB ORBITALS

 DEFAULT CENTROIDS AND EXTENTS.

 MOLECULAR GEOMETRY ABOUT CENTER OF MASS

  Atom#   ATOMIC NO.     X        Y        Z
    1         8        0.0000   0.0000   0.0656
    2         1        0.0000   0.7572  -0.5209
    3         1        0.0000  -0.7572  -0.5209

 CENTROIDS OF CHARGE FOR EACH VB GROUP & DISTANCES FROM 3 ATOMS

                                                  DISTANCES FROM ATOMS
 Orbital#   Group#       X        Y        Z        1        2        3
    4         2       -0.0000   0.1504  -0.0863   0.2138   0.7464   1.0063
    5         2       -0.0000   0.6170  -0.4262   0.7891   0.1692   1.3775
    6         2       -0.0000  -0.1504  -0.0863   0.2138   1.0063   0.7464
    7         2       -0.0000  -0.6170  -0.4262   0.7891   1.3775   0.1692

 EXTENT OF ORBITAL MEASURED BY (<R**2>)

 Orbital#   Group#     <X**2>   <Y**2>   <Z**2>   <R**2> Sqrt<R**2>

    4         2        0.0935   0.1742   0.1792   0.4470   0.6685
    5         2        0.1527   0.2583   0.2239   0.6349   0.7968
    6         2        0.0935   0.1742   0.1792   0.4470   0.6685
    7         2        0.1527   0.2583   0.2239   0.6349   0.7968

 WORDS OF DYNAMIC MEMORY USED IN VB2000 CODE ONLY:        7428
 NOTE THAT THIS IS IN ADDITION TO MEMORY USED BY GAMESS
 PRINTED NEAR END OF OUTPUT. ADD THE TWO AMOUNTS TO GIVE
 THE TOTAL MEMORY USED BY THE JOB

 STATISTICS OF CPU TIMES (SECONDS)
 CPU TIME FOR INITIALIZATION        0.010
 CPU TIME FOR MACROITERATION        0.960
 TOTAL CPU TIME                     0.970

 STEP CPU TIME =     1.03 TOTAL CPU TIME =        1.1 (    0.0 MIN)
 TOTAL WALL CLOCK TIME=        1.1 SECONDS, CPU UTILIZATION IS  95.50%

 **************************************************************
 *                                                            *
 *                  ENDING GAMESS(US) VB2000                  *
 *                                                            *
 *  Properties for individual molecular orbitals are correct  *
 *   only for VB modified orbitals in a Hartree-Fock group.   *
 *                                                            *
 **************************************************************

     ----------------------------------
     PROPERTIES FOR THE VB WAVEFUNCTION
     ----------------------------------

          -----------------
          ENERGY COMPONENTS
          -----------------

         WAVEFUNCTION NORMALIZATION =       1.0000000000

                ONE ELECTRON ENERGY =    -122.2654105859
                TWO ELECTRON ENERGY =      38.0727932319
           NUCLEAR REPULSION ENERGY =       9.1892146195
                                      ------------------
                       TOTAL ENERGY =     -75.0034027345

 ELECTRON-ELECTRON POTENTIAL ENERGY =      38.0727932319
  NUCLEUS-ELECTRON POTENTIAL ENERGY =    -196.9040425663
   NUCLEUS-NUCLEUS POTENTIAL ENERGY =       9.1892146195
                                      ------------------
             TOTAL POTENTIAL ENERGY =    -149.6420347148
               TOTAL KINETIC ENERGY =      74.6386319803
                 VIRIAL RATIO (V/T) =       2.0048871576

          ---------------------------------------
          MULLIKEN AND LOWDIN POPULATION ANALYSES
          ---------------------------------------

     ATOMIC MULLIKEN POPULATION IN EACH MOLECULAR ORBITAL

                      1          2          3          4          5

                  2.000000   2.000000   2.000000   2.000000   2.000000

    1             1.999694   2.024567   2.000000   1.681879   2.000000
    2             0.000153  -0.012283  -0.000000   0.159061   0.000000
    3             0.000153  -0.012283  -0.000000   0.159061   0.000000

               ----- POPULATIONS IN EACH AO -----
                             MULLIKEN      LOWDIN
              1  O  1  S      1.99770     1.99619
              2  O  1  S      1.84144     1.68920
              3  O  1  X      2.00000     2.00000
              4  O  1  Y      1.06595     1.09495
              5  O  1  Z      1.43927     1.45411
              6  H  2  S      0.82782     0.88278
              7  H  3  S      0.82782     0.88278

          ----- MULLIKEN ATOMIC OVERLAP POPULATIONS -----
          (OFF-DIAGONAL ELEMENTS NEED TO BE MULTIPLIED BY 2)

             1           2           3

    1    7.8697961
    2    0.2372866   0.6359884
    3    0.2372866  -0.0454597   0.6359884

          TOTAL MULLIKEN AND LOWDIN ATOMIC POPULATIONS
       ATOM         MULL.POP.    CHARGE          LOW.POP.     CHARGE
    1 OXYGEN        8.344369   -0.344369         8.234437   -0.234437
    2 HYDROGEN      0.827815    0.172185         0.882782    0.117218
    3 HYDROGEN      0.827815    0.172185         0.882782    0.117218

          -------------------------------
          BOND ORDER AND VALENCE ANALYSIS     BOND ORDER THRESHOLD=0.050
          -------------------------------

                   BOND                       BOND                       BOND
  ATOM PAIR DIST  ORDER      ATOM PAIR DIST  ORDER      ATOM PAIR DIST  ORDER
    1   2  0.958  0.912        1   3  0.958  0.912

                       TOTAL       BONDED        FREE
      ATOM            VALENCE     VALENCE     VALENCE
    1 OXYGEN            1.917       1.824       0.093
    2 HYDROGEN          0.970       0.923       0.048
    3 HYDROGEN          0.970       0.923       0.048

          ---------------------
          ELECTROSTATIC MOMENTS
          ---------------------

 POINT   1           X           Y           Z (BOHR)    CHARGE
                 0.000000    0.000000   -0.124046        0.00 (A.U.)
         DX          DY          DZ         /D/  (DEBYE)
    -0.000000    0.000000   -1.635586    1.635586
 ...... END OF PROPERTY EVALUATION ......
 STEP CPU TIME =     0.00 TOTAL CPU TIME =        1.1 (    0.0 MIN)
 TOTAL WALL CLOCK TIME=        1.1 SECONDS, CPU UTILIZATION IS  95.50%

 AN INPUT FILE FOR -PLTORB- HAS BEEN PUNCHED.

 AN AIMPAC INPUT FILE IS BEING WRITTEN TO FILE   7

               580000  WORDS OF DYNAMIC MEMORY USED
 EXECUTION OF GAMESS TERMINATED NORMALLY Mon Oct 14 07:26:59 2013
 DDI: 263624 bytes (0.3 MB / 0 MWords) used by master data server.

 ----------------------------------------
 CPU timing information for all processes
 ========================================
 0: 1.60 + 0.12 = 1.72
 ----------------------------------------
 ddikick.x: exited gracefully.
unset echo
----- accounting info -----
Files used on the master node titch-64 were:
-rw-r--r-- 1 brian brian    2258 Oct 14 07:26 /scr/brian/exam-vb03.F05
-rw-rw-r-- 1 brian brian  180016 Oct 14 07:26 /scr/brian/exam-vb03.F08
-rw-rw-r-- 1 brian brian 1505120 Oct 14 07:26 /scr/brian/exam-vb03.F10
-rw-rw-r-- 1 brian brian     203 Oct 14 07:26 /scr/brian/exam-vb03.mol
-rw-rw-r-- 1 brian brian    2401 Oct 14 07:26 /scr/brian/exam-vb03.molf
-rw-rw-r-- 1 brian brian    1062 Oct 14 07:26 /scr/brian/exam-vb03.orb
-rw-rw-r-- 1 brian brian      88 Oct 14 07:26 /scr/brian/exam-vb03.TEMP02
-rw-rw-r-- 1 brian brian      88 Oct 14 07:26 /scr/brian/exam-vb03.TEMP03
-rw-rw-r-- 1 brian brian     448 Oct 14 07:26 /scr/brian/exam-vb03.TEMP04
-rw-rw-r-- 1 brian brian    4050 Oct 14 07:26 /scr/brian/exam-vb03.V80
-rw-rw-r-- 1 brian brian       0 Oct 14 07:26 /scr/brian/exam-vb03.V82
-rw-rw-r-- 1 brian brian       0 Oct 14 07:26 /scr/brian/exam-vb03.V83
-rw-rw-r-- 1 brian brian     724 Oct 14 07:26 /scr/brian/exam-vb03.V84
-rw-rw-r-- 1 brian brian    6520 Oct 14 07:26 /scr/brian/exam-vb03.V85
-rw-rw-r-- 1 brian brian  196592 Oct 14 07:26 /scr/brian/exam-vb03.V86
-rw-rw-r-- 1 brian brian  196592 Oct 14 07:26 /scr/brian/exam-vb03.V87
-rw-rw-r-- 1 brian brian     736 Oct 14 07:26 /scr/brian/exam-vb03.V88
-rw-rw-r-- 1 brian brian       0 Oct 14 07:26 /scr/brian/exam-vb03.V89
-rw-rw-r-- 1 brian brian     831 Oct 14 07:26 /scr/brian/exam-vb03.vec
ls: No match.
ls: No match.
Mon Oct 14 07:27:02 EST 2013
0.080u 0.012s 0:04.28 2.1%	0+0k 8+32io 0pf+0w
