----- GAMESS execution script 'rungms' -----
This job is running on host titch-64
under operating system Linux at Mon Oct 14 07:29:53 EST 2013
Available scratch disk space (Kbyte units) at beginning of the job is
Filesystem     1K-blocks      Used Available Use% Mounted on
/dev/sda1      945022356 138268648 758749356  16% /
GAMESS temporary binary files will be written to /scr/brian
GAMESS supplementary output files will be written to /home/brian/scr
Copying input file exam-vb21.inp to your run's scratch directory...
cp tests/exam-vb21.inp /scr/brian/exam-vb21.F05
unset echo
/home/brian/qchem/gamess/ddikick.x /home/brian/qchem/gamess/gamess.01.x exam-vb21 -ddi 1 1 titch-64 -scr /scr/brian

 Distributed Data Interface kickoff program.
 Initiating 1 compute processes on 1 nodes to run the following command:
 /home/brian/qchem/gamess/gamess.01.x exam-vb21 

          ******************************************************
          *         GAMESS VERSION =  1 MAY 2013 (R1)          *
          *             FROM IOWA STATE UNIVERSITY             *
          * M.W.SCHMIDT, K.K.BALDRIDGE, J.A.BOATZ, S.T.ELBERT, *
          *   M.S.GORDON, J.H.JENSEN, S.KOSEKI, N.MATSUNAGA,   *
          *          K.A.NGUYEN, S.J.SU, T.L.WINDUS,           *
          *       TOGETHER WITH M.DUPUIS, J.A.MONTGOMERY       *
          *         J.COMPUT.CHEM.  14, 1347-1363(1993)        *
          **************** 64 BIT LINUX VERSION ****************

  SINCE 1993, STUDENTS AND POSTDOCS WORKING AT IOWA STATE UNIVERSITY
  AND ALSO IN THEIR VARIOUS JOBS AFTER LEAVING ISU HAVE MADE IMPORTANT
  CONTRIBUTIONS TO THE CODE:
     IVANA ADAMOVIC, CHRISTINE AIKENS, YURI ALEXEEV, POOJA ARORA,
     ANDREY ASADCHEV, ROB BELL, PRADIPTA BANDYOPADHYAY, JONATHAN BENTZ,
     BRETT BODE, GALINA CHABAN, WEI CHEN, CHEOL HO CHOI, PAUL DAY,
     ALBERT DEFUSCO, TIM DUDLEY, DMITRI FEDOROV, GRAHAM FLETCHER,
     MARK FREITAG, KURT GLAESEMANN, DAN KEMP, GRANT MERRILL,
     NORIYUKI MINEZAWA, JONATHAN MULLIN, TAKESHI NAGATA,
     SEAN NEDD, HEATHER NETZLOFF, BOSILJKA NJEGIC, RYAN OLSON, MIKE PAK,
     JIM SHOEMAKER, LYUDMILA SLIPCHENKO, SAROM SOK, JIE SONG,
     TETSUYA TAKETSUGU, SIMON WEBB, SOOHAENG YOO, FEDERICO ZAHARIEV

  ADDITIONAL CODE HAS BEEN PROVIDED BY COLLABORATORS IN OTHER GROUPS:
     IOWA STATE UNIVERSITY:
          JOE IVANIC, LAIMUTIS BYTAUTAS, KLAUS RUEDENBERG
     UNIVERSITY OF TOKYO: KIMIHIKO HIRAO, TAKAHITO NAKAJIMA,
          TAKAO TSUNEDA, MUNEAKI KAMIYA, SUSUMU YANAGISAWA,
          KIYOSHI YAGI, MAHITO CHIBA, SEIKEN TOKURA, NAOAKI KAWAKAMI
     UNIVERSITY OF AARHUS: FRANK JENSEN
     UNIVERSITY OF IOWA: VISVALDAS KAIRYS, HUI LI
     NATIONAL INST. OF STANDARDS AND TECHNOLOGY: WALT STEVENS, DAVID GARMER
     UNIVERSITY OF PISA: BENEDETTA MENNUCCI, JACOPO TOMASI
     UNIVERSITY OF MEMPHIS: HENRY KURTZ, PRAKASHAN KORAMBATH
     UNIVERSITY OF ALBERTA: TOBY ZENG, MARIUSZ KLOBUKOWSKI
     UNIVERSITY OF NEW ENGLAND: MARK SPACKMAN
     MIE UNIVERSITY: HIROAKI UMEDA
     MICHIGAN STATE UNIVERSITY:
          KAROL KOWALSKI, MARTA WLOCH, JEFFREY GOUR, JESSE LUTZ,
          WEI LI, PIOTR PIECUCH
     UNIVERSITY OF SILESIA: MONIKA MUSIAL, STANISLAW KUCHARSKI
     FACULTES UNIVERSITAIRES NOTRE-DAME DE LA PAIX:
          OLIVIER QUINET, BENOIT CHAMPAGNE
     UNIVERSITY OF CALIFORNIA - SANTA BARBARA: BERNARD KIRTMAN
     INSTITUTE FOR MOLECULAR SCIENCE:
          KAZUYA ISHIMURA, MICHIO KATOUDA, AND SHIGERU NAGASE
     UNIVERSITY OF NOTRE DAME: DAN CHIPMAN
     KYUSHU UNIVERSITY:
          HARUYUKI NAKANO,
          FENG LONG GU, JACEK KORCHOWIEC, MARCIN MAKOWSKI, AND YURIKO AOKI,
          HIROTOSHI MORI AND EISAKU MIYOSHI
     PENNSYLVANIA STATE UNIVERSITY:
          TZVETELIN IORDANOV, CHET SWALINA, JONATHAN SKONE,
          SHARON HAMMES-SCHIFFER
     WASEDA UNIVERSITY:
          MASATO KOBAYASHI, TOMOKO AKAMA, TSUGUKI TOUMA,
          TAKESHI YOSHIKAWA, YASUHIRO IKABATA, HIROMI NAKAI
     NANJING UNIVERSITY: SHUHUA LI
     UNIVERSITY OF NEBRASKA:
          PEIFENG SU, DEJUN SI, NANDUN THELLAMUREGE, YALI WANG, HUI LI
     UNIVERSITY OF ZURICH:
          ROBERTO PEVERATI, KIM BALDRIDGE
     N. COPERNICUS UNIVERSITY AND JACKSON STATE UNIVERSITY:
          MARIA BARYSZ

 EXECUTION OF GAMESS BEGUN Mon Oct 14 07:29:53 2013

            ECHO OF THE FIRST FEW INPUT CARDS -
 INPUT CARD>! GAMESS/VB2000 Test 21.                                                        
 INPUT CARD>! This run is a test of an open shell case, and like test 20 an                 
 INPUT CARD>! illustration of more complex data with a basis set (D95)                      
 INPUT CARD>! that is not present in Gamess. Note that the property groups are              
 INPUT CARD>! present in the data so they are calculated in both the HF and VB              
 INPUT CARD>! parts.                                                                        
 INPUT CARD>!                                                                               
 INPUT CARD>! Note that the data has been entered with no symmetry. This is a               
 INPUT CARD>! CASVB run. SPDEN is included on the command line.                             
 INPUT CARD>!                                                                               
 INPUT CARD>! The final ROHF energy is:=                                                    
 INPUT CARD>!                                                                               
 INPUT CARD>! ROHF ENERGY IS -100.4222525464 AFTER   9 ITERATIONS                           
 INPUT CARD>!                                                                               
 INPUT CARD>! The VB final energy is:-                                                      
 INPUT CARD>!                                                                               
 INPUT CARD>! ENERGY AND DIFF OF MACROITER   11 =   -100.46902055     -0.00000018           
 INPUT CARD>!                                                                               
 INPUT CARD>! and the VB and HF dipole moments are zero. The spin densities on H            
 INPUT CARD>! and F are 0.56736 and -0.13473.                                               
 INPUT CARD>!                                                                               
 INPUT CARD> $CONTRL SCFTYP=ROHF MULT=2 COORD=UNIQUE                                        
 INPUT CARD>   VBTYP=VB2000 $END                                                            
 INPUT CARD> $SYSTEM TIMLIM=20 MEMORY=2000000 $END                                          
 INPUT CARD> $GUESS  GUESS=HUCKEL $END                                                      
 INPUT CARD> $ELMOM IEMOM=3 $END                                                            
 INPUT CARD> $ELFLDG IEFLD=2 $END                                                           
 INPUT CARD> $ELPOT  IEPOT=1 OUTPUT=BOTH $END                                               
 INPUT CARD> $ELDENS IEDEN=1 WHERE=POINTS $END                                              
 INPUT CARD> $POINTS                                                                        
 INPUT CARD> ANGS 6                                                                         
 INPUT CARD>    .000000 -1.18000  0.0                                                       
 INPUT CARD>    .000000   .00000  0.0                                                       
 INPUT CARD>    .000000  1.18000  0.0                                                       
 INPUT CARD>    1.0                 0.0             0.0                                     
 INPUT CARD>   -1.0                 0.0             0.0                                     
 INPUT CARD>    0.0000000000    2.0000000000   0.6000000000                                 
 INPUT CARD> $DATA                                                                          
 INPUT CARD>H2F DOUBLET D95                                                                 
 INPUT CARD>C1                                                                              
 INPUT CARD>H  1.0    .000000 -1.18000  0.0                                                 
 INPUT CARD> S    3 1.00                                                                    
 INPUT CARD> 1  0.1924060000D+02  0.3282800000D-01                                          
 INPUT CARD> 2  0.2899200000D+01  0.2312080000D+00                                          
 INPUT CARD> 3  0.6534000000D+00  0.8172380000D+00                                          
 INPUT CARD> S    1 1.00                                                                    
 INPUT CARD> 1  0.1776000000D+00  0.1000000000D+01                                          
 INPUT CARD>                                                                                
 INPUT CARD>F  9.0    .000000   .00000  0.0                                                 
 INPUT CARD> S    6 1.00                                                                    
    2000000 WORDS OF MEMORY AVAILABLE


     RUN TITLE
     ---------
 H2F DOUBLET D95                                                                 

 THE POINT GROUP OF THE MOLECULE IS C1      
 THE ORDER OF THE PRINCIPAL AXIS IS     0
 *** WARNING! ATOM   1 SHELL    1 TYPE S HAS NORMALIZATION   1.00000234
 *** WARNING! ATOM   3 SHELL    9 TYPE S HAS NORMALIZATION   1.00000234

 ATOM      ATOMIC                      COORDINATES (BOHR)
           CHARGE         X                   Y                   Z
 H           1.0     0.0000000000       -2.2298766655        0.0000000000
 F           9.0     0.0000000000        0.0000000000        0.0000000000
 H           1.0     0.0000000000        2.2298766655        0.0000000000

          INTERNUCLEAR DISTANCES (ANGS.)
          ------------------------------

                1 H          2 F          3 H     

   1 H       0.0000000    1.1800000 *  2.3600000 *
   2 F       1.1800000 *  0.0000000    1.1800000 *
   3 H       2.3600000 *  1.1800000 *  0.0000000  

  * ... LESS THAN  3.000


     ATOMIC BASIS SET
     ----------------
 THE CONTRACTED PRIMITIVE FUNCTIONS HAVE BEEN UNNORMALIZED
 THE CONTRACTED BASIS FUNCTIONS ARE NOW NORMALIZED TO UNITY

  SHELL TYPE  PRIMITIVE        EXPONENT          CONTRACTION COEFFICIENT(S)

 H         

      1   S       1            19.2406000    0.032828076968
      1   S       2             2.8992000    0.231208542086
      1   S       3             0.6534000    0.817239916083

      2   S       4             0.1776000    1.000000000000

 F         

      3   S       5          9994.7900000    0.002016998646
      3   S       6          1506.0300000    0.015294989735
      3   S       7           350.2690000    0.073109950931
      3   S       8           104.0530000    0.246419834613
      3   S       9            34.8432000    0.612592588852
      3   S      10             4.3688000    0.242488837251

      4   S      11            12.2164000    1.000000000000

      5   S      12             1.2078000    1.000000000000

      6   S      13             0.3634000    1.000000000000

      7   P      14            44.3555000    0.020868000628
      7   P      15            10.0820000    0.130092003916
      7   P      16             2.9959000    0.396219011926
      7   P      17             0.9383000    0.620368018673

      8   P      18             0.2733000    1.000000000000

 H         

      9   S      19            19.2406000    0.032828076968
      9   S      20             2.8992000    0.231208542086
      9   S      21             0.6534000    0.817239916083

     10   S      22             0.1776000    1.000000000000

 TOTAL NUMBER OF BASIS SET SHELLS             =   10
 NUMBER OF CARTESIAN GAUSSIAN BASIS FUNCTIONS =   14
 NUMBER OF ELECTRONS                          =   11
 CHARGE OF MOLECULE                           =    0
 SPIN MULTIPLICITY                            =    2
 NUMBER OF OCCUPIED ORBITALS (ALPHA)          =    6
 NUMBER OF OCCUPIED ORBITALS (BETA )          =    5
 TOTAL NUMBER OF ATOMS                        =    3
 THE NUCLEAR REPULSION ENERGY IS        8.2964229754

 THIS MOLECULE IS RECOGNIZED AS BEING LINEAR,
 ORBITAL LZ DEGENERACY TOLERANCE ETOLLZ= 1.00E-06

     $CONTRL OPTIONS
     ---------------
 SCFTYP=ROHF         RUNTYP=ENERGY       EXETYP=RUN     
 MPLEVL=       0     CITYP =NONE         CCTYP =NONE         VBTYP =VB2000  
 DFTTYP=NONE         TDDFT =NONE    
 MULT  =       2     ICHARG=       0     NZVAR =       0     COORD =UNIQUE  
 PP    =NONE         RELWFN=NONE         LOCAL =NONE         NUMGRD=       F
 ISPHER=      -1     NOSYM =       0     MAXIT =      30     UNITS =ANGS    
 PLTORB=       F     MOLPLT=       F     AIMPAC=       F     FRIEND=        
 NPRINT=       7     IREST =       0     GEOM  =INPUT   
 NORMF =       0     NORMP =       0     ITOL  =      20     ICUT  =       9
 INTTYP=BEST         GRDTYP=BEST         QMTTOL= 1.0E-06

     $SYSTEM OPTIONS
     ---------------
  REPLICATED MEMORY=     2000000 WORDS (ON EVERY NODE).
 DISTRIBUTED MEMDDI=           0 MILLION WORDS IN AGGREGATE,
 MEMDDI DISTRIBUTED OVER   1 PROCESSORS IS           0 WORDS/PROCESSOR.
 TOTAL MEMORY REQUESTED ON EACH PROCESSOR=     2000000 WORDS.
 TIMLIM=          20.00 MINUTES, OR       0.0 DAYS.
 PARALL= F  BALTYP=  DLB     KDIAG=    0  COREFL= F
 MXSEQ2=     300 MXSEQ3=     150

          ----------------
          PROPERTIES INPUT
          ----------------

     MOMENTS            FIELD           POTENTIAL          DENSITY
 IEMOM =       3   IEFLD =       2   IEPOT =       1   IEDEN =       1
 WHERE =COMASS     WHERE =NUCLEI     WHERE =NUCLEI     WHERE =POINTS  
 OUTPUT=BOTH       OUTPUT=BOTH       OUTPUT=BOTH       OUTPUT=BOTH    
 IEMINT=       0   IEFINT=       0                     IEDINT=       0
                                                       MORB  =       0
          EXTRAPOLATION IN EFFECT
          SOSCF IN EFFECT
 ORBITAL PRINTING OPTION: NPREO=     1    14     2     1

     -------------------------------
     INTEGRAL TRANSFORMATION OPTIONS
     -------------------------------
     NWORD  =            0
     CUTOFF = 1.0E-09     MPTRAN =       0
     DIRTRF =       F     AOINTS =DUP     

          ----------------------
          INTEGRAL INPUT OPTIONS
          ----------------------
 NOPK  =       1 NORDER=       0 SCHWRZ=       F

     ------------------------------------------
     THE POINT GROUP IS C1 , NAXIS= 0, ORDER= 1
     ------------------------------------------

     DIMENSIONS OF THE SYMMETRY SUBSPACES ARE
 A   =   14

 ..... DONE SETTING UP THE RUN .....
 STEP CPU TIME =     0.01 TOTAL CPU TIME =        0.0 (    0.0 MIN)
 TOTAL WALL CLOCK TIME=        0.0 SECONDS, CPU UTILIZATION IS  50.00%

          ********************
          1 ELECTRON INTEGRALS
          ********************
 ...... END OF ONE-ELECTRON INTEGRALS ......
 STEP CPU TIME =     0.00 TOTAL CPU TIME =        0.0 (    0.0 MIN)
 TOTAL WALL CLOCK TIME=        0.0 SECONDS, CPU UTILIZATION IS  50.00%

          -------------
          GUESS OPTIONS
          -------------
          GUESS =HUCKEL            NORB  =       0          NORDER=       0
          MIX   =       F          PRTMO =       F          PUNMO =       F
          TOLZ  = 1.0E-08          TOLE  = 1.0E-05
          SYMDEN=       F          PURIFY=       F

 INITIAL GUESS ORBITALS GENERATED BY HUCKEL   ROUTINE.
 HUCKEL GUESS REQUIRES      3745 WORDS.

 SYMMETRIES FOR INITIAL GUESS ORBITALS FOLLOW.  ALPHA SET(S).
     6 ORBITALS ARE OCCUPIED (    1 CORE ORBITALS).
     2=A        3=A        4=A        5=A        6=A        7=A        8=A   
     9=A       10=A       11=A       12=A       13=A       14=A   

 SYMMETRIES FOR INITIAL GUESS ORBITALS FOLLOW.   BETA SET(S).
     5 ORBITALS ARE OCCUPIED (    1 CORE ORBITALS).
     2=A        3=A        4=A        5=A        6=A        7=A        8=A   
     9=A       10=A       11=A       12=A       13=A       14=A   
 ...... END OF INITIAL ORBITAL SELECTION ......
 STEP CPU TIME =     0.00 TOTAL CPU TIME =        0.0 (    0.0 MIN)
 TOTAL WALL CLOCK TIME=        0.0 SECONDS, CPU UTILIZATION IS  50.00%

                    ----------------------
                    AO INTEGRAL TECHNOLOGY
                    ----------------------
     S,P,L SHELL ROTATED AXIS INTEGRALS, REPROGRAMMED BY
        KAZUYA ISHIMURA (IMS) AND JOSE SIERRA (SYNSTAR).
     S,P,D,L SHELL ROTATED AXIS INTEGRALS PROGRAMMED BY
        KAZUYA ISHIMURA (INSTITUTE FOR MOLECULAR SCIENCE).
     S,P,D,F,G SHELL TO TOTAL QUARTET ANGULAR MOMENTUM SUM 5,
        ERIC PROGRAM BY GRAHAM FLETCHER (ELORET AND NASA ADVANCED
        SUPERCOMPUTING DIVISION, AMES RESEARCH CENTER).
     S,P,D,F,G,L SHELL GENERAL RYS QUADRATURE PROGRAMMED BY
        MICHEL DUPUIS (PACIFIC NORTHWEST NATIONAL LABORATORY).

          --------------------
          2 ELECTRON INTEGRALS
          --------------------

 THE -PK- OPTION IS OFF, THE INTEGRALS ARE NOT IN SUPERMATRIX FORM.
 STORING   15000 INTEGRALS/RECORD ON DISK, USING 12 BYTES/INTEGRAL.
 TWO ELECTRON INTEGRAL EVALUATION REQUIRES   89411 WORDS OF MEMORY.
 II,JST,KST,LST =  1  1  1  1 NREC =         1 INTLOC =    1
 II,JST,KST,LST =  2  1  1  1 NREC =         1 INTLOC =    2
 II,JST,KST,LST =  3  1  1  1 NREC =         1 INTLOC =    7
 II,JST,KST,LST =  4  1  1  1 NREC =         1 INTLOC =   22
 II,JST,KST,LST =  5  1  1  1 NREC =         1 INTLOC =   56
 II,JST,KST,LST =  6  1  1  1 NREC =         1 INTLOC =  121
 II,JST,KST,LST =  7  1  1  1 NREC =         1 INTLOC =  232
 II,JST,KST,LST =  8  1  1  1 NREC =         1 INTLOC =  463
 II,JST,KST,LST =  9  1  1  1 NREC =         1 INTLOC =  970
 II,JST,KST,LST = 10  1  1  1 NREC =         1 INTLOC = 1455
 TOTAL NUMBER OF NONZERO TWO-ELECTRON INTEGRALS =                2089
          1 INTEGRAL RECORDS WERE STORED ON DISK FILE  8.
  ...... END OF TWO-ELECTRON INTEGRALS .....
 STEP CPU TIME =     0.01 TOTAL CPU TIME =        0.0 (    0.0 MIN)
 TOTAL WALL CLOCK TIME=        0.0 SECONDS, CPU UTILIZATION IS  66.67%

          ---------------------------
                 ROHF SCF CALCULATION
          ---------------------------

     NUCLEAR ENERGY =         8.2964229754
     MAXIT = 30     NPUNCH=  2     MULT=  2
     EXTRAP=T  DAMP=F  SHIFT=F  RSTRCT=F  DIIS=F  SOSCF=T
     DENSITY MATRIX CONV=  1.00E-05
     ROHF CANONICALIZATION PARAMETERS
             C-C     O-O     V-V
     ALPHA -0.5000  0.5000  1.5000
     BETA   1.5000  0.5000 -0.5000
     SOSCF WILL OPTIMIZE      53 ORBITAL ROTATION ANGLES. SOGTOL= 2.500E-01
     MEMORY REQUIRED FOR UHF/ROHF ITERS=     32279 WORDS.

 ITER EX      TOTAL ENERGY        E CHANGE  DENSITY CHANGE    ORB. GRAD 
   1  0     -100.1446001900  -100.1446001900   0.360192043   0.000000000
          ---------------START SECOND ORDER SCF---------------
   2  1     -100.4119170069    -0.2673168169   0.137816131   0.052052004
   3  2     -100.4175273094    -0.0056103026   0.053236676   0.035935110
   4  3     -100.4221831362    -0.0046558268   0.008359993   0.003157406
   5  4     -100.4222473169    -0.0000641807   0.002837874   0.000730883
   6  5     -100.4222525309    -0.0000052140   0.000171834   0.000091065
   7  6     -100.4222525461    -0.0000000152   0.000031540   0.000014018
   8  7     -100.4222525464    -0.0000000003   0.000001026   0.000000482
   9  8     -100.4222525464    -0.0000000000   0.000000081   0.000000043

          -----------------
          DENSITY CONVERGED
          -----------------
     TIME TO FORM FOCK OPERATORS=       0.0 SECONDS (       0.0 SEC/ITER)
     TIME TO SOLVE SCF EQUATIONS=       0.0 SECONDS (       0.0 SEC/ITER)

 FINAL ROHF ENERGY IS     -100.4222525464 AFTER   9 ITERATIONS

          --------------------
          SPIN SZ   =    0.500
          S-SQUARED =    0.750
          --------------------

 LZ VALUE ANALYSIS FOR THE MOS
 ----------------------------------------
 MO     1 (    1) HAS LZ(WEIGHT)= 0.00(100.0%) 
 MO     2 (    2) HAS LZ(WEIGHT)= 0.00(100.0%) 
 MO     3 (    3) HAS LZ(WEIGHT)= 0.00(100.0%) 
 MO     4 (    4) HAS LZ(WEIGHT)= 0.00(100.0%) 
 MO     5 (    4) HAS LZ(WEIGHT)= 0.00(100.0%) 
 MO     6 (    5) HAS LZ(WEIGHT)= 0.00(100.0%) 
 MO     7 (    6) HAS LZ(WEIGHT)= 0.00(100.0%) 
 MO     8 (    7) HAS LZ(WEIGHT)= 0.00(100.0%) 
 MO     9 (    8) HAS LZ(WEIGHT)= 0.00(100.0%) 
 MO    10 (    9) HAS LZ(WEIGHT)= 0.00(100.0%) 
 MO    11 (    9) HAS LZ(WEIGHT)= 0.00(100.0%) 
 MO    12 (   10) HAS LZ(WEIGHT)= 0.00(100.0%) 
 MO    13 (   11) HAS LZ(WEIGHT)= 0.00(100.0%) 
 MO    14 (   12) HAS LZ(WEIGHT)= 0.00(100.0%) 

          ------------
          EIGENVECTORS
          ------------

                      1          2          3          4          5
                  -26.3225    -1.5607    -0.6982    -0.6585    -0.6585
                     A          A          A          A          A   
    1  H  1  S    0.000013   0.048877  -0.167051   0.000000   0.000000
    2  H  1  S   -0.000199   0.008035  -0.081174   0.000000   0.000000
    3  F  2  S    0.579948  -0.144388  -0.000000   0.000000   0.000000
    4  F  2  S    0.462200  -0.198021  -0.000000   0.000000   0.000000
    5  F  2  S   -0.000457   0.581144  -0.000000   0.000000   0.000000
    6  F  2  S    0.001926   0.509902  -0.000000   0.000000   0.000000
    7  F  2  X   -0.000000  -0.000000  -0.000000   0.714627  -0.257646
    8  F  2  Y   -0.000000  -0.000000   0.600724   0.000000   0.000000
    9  F  2  Z   -0.000000  -0.000000  -0.000000   0.257646   0.714627
   10  F  2  X   -0.000000  -0.000000  -0.000000   0.353150  -0.127322
   11  F  2  Y   -0.000000  -0.000000   0.312385   0.000000   0.000000
   12  F  2  Z   -0.000000  -0.000000  -0.000000   0.127322   0.353150
   13  H  3  S    0.000013   0.048877   0.167051   0.000000   0.000000
   14  H  3  S   -0.000199   0.008035   0.081174   0.000000   0.000000

                      6          7          8          9         10
                   -0.0770     0.0476     0.8856     0.9591     1.0128
                     A          A          A          A          A   
    1  H  1  S    0.274440  -0.182091   0.907512  -0.742766  -0.000000
    2  H  1  S    0.601313  -0.917070  -0.905918   1.059045  -0.000000
    3  F  2  S    0.047699   0.000000   0.010326  -0.000000  -0.000000
    4  F  2  S    0.065315   0.000000   0.017463  -0.000000  -0.000000
    5  F  2  S   -0.180667   0.000000  -0.130208  -0.000000  -0.000000
    6  F  2  S   -0.535632   0.000000   0.490338  -0.000000  -0.000000
    7  F  2  X    0.000000   0.000000  -0.000000  -0.000000  -0.277840
    8  F  2  Y    0.000000  -0.445100  -0.000000  -0.579053  -0.000000
    9  F  2  Z    0.000000   0.000000  -0.000000  -0.000000  -0.818107
   10  F  2  X    0.000000   0.000000  -0.000000  -0.000000   0.349710
   11  F  2  Y    0.000000  -0.679811  -0.000000   0.789145  -0.000000
   12  F  2  Z    0.000000   0.000000  -0.000000  -0.000000   1.029730
   13  H  3  S    0.274440   0.182091   0.907512   0.742766  -0.000000
   14  H  3  S    0.601313   0.917070  -0.905918  -1.059045  -0.000000

                     11         12         13         14
                    1.0128     1.6221     1.7617    54.9602
                     A          A          A          A   
    1  H  1  S    0.000000   0.747807  -0.127652  -0.004756
    2  H  1  S    0.000000   0.286678  -0.332282  -0.038761
    3  F  2  S    0.000000   0.000000   0.146240  -1.735544
    4  F  2  S    0.000000   0.000000   0.247245   1.875500
    5  F  2  S    0.000000   0.000000  -1.786340  -0.353206
    6  F  2  S    0.000000   0.000000   2.007695   0.242337
    7  F  2  X   -0.818107   0.000000  -0.000000   0.000000
    8  F  2  Y    0.000000  -0.775526  -0.000000   0.000000
    9  F  2  Z    0.277840   0.000000  -0.000000   0.000000
   10  F  2  X    1.029730   0.000000  -0.000000   0.000000
   11  F  2  Y    0.000000   1.857189  -0.000000   0.000000
   12  F  2  Z   -0.349710   0.000000  -0.000000   0.000000
   13  H  3  S    0.000000  -0.747807  -0.127652  -0.004756
   14  H  3  S    0.000000  -0.286678  -0.332282  -0.038761
 ...... END OF ROHF CALCULATION ......
 STEP CPU TIME =     0.00 TOTAL CPU TIME =        0.0 (    0.0 MIN)
 TOTAL WALL CLOCK TIME=        0.0 SECONDS, CPU UTILIZATION IS  66.67%

     ----------------------------------------------------------------
     PROPERTY VALUES FOR THE ROHF  SELF-CONSISTENT FIELD WAVEFUNCTION
     ----------------------------------------------------------------

          -----------------
          ENERGY COMPONENTS
          -----------------

         WAVEFUNCTION NORMALIZATION =       1.0000000000

                ONE ELECTRON ENERGY =    -157.0934714165
                TWO ELECTRON ENERGY =      48.3747958947
           NUCLEAR REPULSION ENERGY =       8.2964229754
                                      ------------------
                       TOTAL ENERGY =    -100.4222525464

 ELECTRON-ELECTRON POTENTIAL ENERGY =      48.3747958947
  NUCLEUS-ELECTRON POTENTIAL ENERGY =    -257.5103338608
   NUCLEUS-NUCLEUS POTENTIAL ENERGY =       8.2964229754
                                      ------------------
             TOTAL POTENTIAL ENERGY =    -200.8391149907
               TOTAL KINETIC ENERGY =     100.4168624443
                 VIRIAL RATIO (V/T) =       2.0000536773

  ...... PI ENERGY ANALYSIS ......

 ENERGY ANALYSIS:
            FOCK ENERGY=    -60.3438797853
          BARE H ENERGY=   -157.0934714165
     ELECTRONIC ENERGY =   -108.7186756009
         KINETIC ENERGY=    100.4168624443
          N-N REPULSION=      8.2964229754
           TOTAL ENERGY=   -100.4222526255
        SIGMA PART(1+2)=    -89.7502207359
               (K,V1,2)=     87.6537957397   -209.4892764000     32.0852599244
           PI PART(1+2)=    -18.9684548650
               (K,V1,2)=     12.7630667046    -48.0210574608     16.2895358912
  SIGMA SKELETON, ERROR=    -81.4537977605      0.0000000000
             MIXED PART= 0.00000E+00 0.00000E+00 0.00000E+00 0.00000E+00
 ...... END OF PI ENERGY ANALYSIS ......

          ---------------------------------------
          MULLIKEN AND LOWDIN POPULATION ANALYSES
          ---------------------------------------

     ATOMIC MULLIKEN POPULATION IN EACH MOLECULAR ORBITAL

                      1          2          3          4          5

                  2.000000   2.000000   2.000000   2.000000   2.000000

    1            -0.000018   0.030542   0.228757   0.000000   0.000000
    2             2.000037   1.938916   1.542486   2.000000   2.000000
    3            -0.000018   0.030542   0.228757   0.000000   0.000000

                      6

                  1.000000

    1             0.507970
    2            -0.015940
    3             0.507970

     ATOMIC SPIN POPULATION (ALPHA MINUS BETA)
       ATOM         MULL.POP.                    LOW.POP.
    1 H             0.507970                     0.450800
    2 F            -0.015940                     0.098400
    3 H             0.507970                     0.450800

               ----- POPULATIONS IN EACH AO -----
                             MULLIKEN      LOWDIN
              1  H  1  S      0.33439     0.34857
              2  H  1  S      0.43286     0.45203
              3  F  2  S      1.13128     1.07391
              4  F  2  S      0.86319     0.91168
              5  F  2  S      1.02784     1.00719
              6  F  2  S      0.90071     0.91305
              7  F  2  X      1.43615     1.37911
              8  F  2  Y      1.00242     0.92552
              9  F  2  Z      1.43615     1.37911
             10  F  2  X      0.56385     0.62089
             11  F  2  Y      0.54007     0.56745
             12  F  2  Z      0.56385     0.62089
             13  H  3  S      0.33439     0.34857
             14  H  3  S      0.43286     0.45203

          ----- MULLIKEN ATOMIC OVERLAP POPULATIONS -----
          (OFF-DIAGONAL ELEMENTS NEED TO BE MULTIPLIED BY 2)

             1           2           3

    1    0.7743572
    2   -0.0779467   9.6213929
    3    0.0708396  -0.0779467   0.7743572

          TOTAL MULLIKEN AND LOWDIN ATOMIC POPULATIONS
       ATOM         MULL.POP.    CHARGE          LOW.POP.     CHARGE
    1 H             0.767250    0.232750         0.800598    0.199402
    2 F             9.465500   -0.465500         9.398804   -0.398804
    3 H             0.767250    0.232750         0.800598    0.199402

          -------------------------------
          BOND ORDER AND VALENCE ANALYSIS     BOND ORDER THRESHOLD=0.050
          -------------------------------

                   BOND                       BOND                       BOND
  ATOM PAIR DIST  ORDER      ATOM PAIR DIST  ORDER      ATOM PAIR DIST  ORDER
    1   2  1.180  0.313        1   3  2.360  0.377        2   3  1.180  0.313

                       TOTAL       BONDED        FREE
      ATOM            VALENCE     VALENCE     VALENCE
    1 H                 0.948       0.690       0.258
    2 F                 0.626       0.626       0.000
    3 H                 0.948       0.690       0.258

          -----------------------------------------
          ATOMIC SPIN DENSITY AT THE NUCLEUS (A.U.)
          -----------------------------------------
                            SPIN DENS    ALPHA DENS     BETA DENS
    1  H            1.0     0.1344047       0.20024       0.06583
    2  F            9.0     1.1558368     213.90689     212.75106
    3  H            1.0     0.1344047       0.20024       0.06583

          ---------------------
          ELECTROSTATIC MOMENTS
          ---------------------

 POINT   1           X           Y           Z (BOHR)    CHARGE
                 0.000000    0.000000    0.000000       -0.00 (A.U.)
         DX          DY          DZ         /D/  (DEBYE)
     0.000000   -0.000000    0.000000    0.000000
        QXX         QYY         QZZ         QXY         QXZ         QYZ  (BUCKINGHAMS)
    -1.261850    2.523701   -1.261850    0.000000   -0.000000    0.000000
        OXXX        OXXY        OXXZ        OXYY        OYYY        OYYZ
     0.000000    0.000000    0.000000    0.000000   -0.000000    0.000000
        OXZZ        OYZZ        OZZZ        OXYZ  (X10**34 ESU-CM**3)
     0.000000    0.000000    0.000000    0.000000

          ----------------
          ELECTRON DENSITY
          ----------------
  POINT      X         Y         Z             DENSITY
                     (BOHR)                    (A.U.)
     1     0.00000  -2.22988   0.00000         0.266069
     2     0.00000   0.00000   0.00000       426.657949
     3     0.00000   2.22988   0.00000         0.266069
     4     1.88973   0.00000   0.00000         0.032898
     5    -1.88973   0.00000   0.00000         0.032898
     6     0.00000   3.77945   1.13384         0.005796

          -----------------------
          ELECTROSTATIC POTENTIAL
          -----------------------

  THE CONTRIBUTION FROM EACH NUCLEUS AT ITS OWN POSITION IS NEGLECTED

   POINT      X          Y          Z           ELECTRONIC      NUCLEAR         TOTAL
                       (BOHR)                                    (A.U.)
      1    0.00000   -2.22988    0.00000        -5.194957       4.260325      -0.934631
      2    0.00000    0.00000    0.00000       -27.457825       0.896911     -26.560914
      3    0.00000    2.22988    0.00000        -5.194957       4.260325      -0.934631

          -----------------------
          ELECTRIC FIELD/GRADIENT 
          -----------------------

  THE CONTRIBUTION FROM EACH NUCLEUS AT ITS OWN POSITION IS NEGLECTED

 POINT     1             X               Y               Z       (BOHR)
                     0.000000       -2.229877        0.000000
            EFX             EFY             EFZ            /EF/       (A.U.)
         0.000000       -0.014631        0.000000        0.014631
           EFGXX           EFGYY           EFGZZ           EFGXY           EFGXZ           EFGYZ
         0.060043       -0.120086        0.060043        0.000000        0.000000        0.000000

 POINT     2             X               Y               Z       (BOHR)
                     0.000000        0.000000        0.000000
            EFX             EFY             EFZ            /EF/       (A.U.)
         0.000000        0.000000        0.000000        0.000000
           EFGXX           EFGYY           EFGZZ           EFGXY           EFGXZ           EFGYZ
         2.052601       -4.105202        2.052601        0.000000        0.000000        0.000000

 POINT     3             X               Y               Z       (BOHR)
                     0.000000        2.229877        0.000000
            EFX             EFY             EFZ            /EF/       (A.U.)
         0.000000        0.014631        0.000000        0.014631
           EFGXX           EFGYY           EFGZZ           EFGXY           EFGXZ           EFGYZ
         0.060043       -0.120086        0.060043        0.000000        0.000000        0.000000
 ...... END OF PROPERTY EVALUATION ......
 STEP CPU TIME =     0.01 TOTAL CPU TIME =        0.0 (    0.0 MIN)
 TOTAL WALL CLOCK TIME=        0.0 SECONDS, CPU UTILIZATION IS  75.00%

 **************************************************************
 *                                                            *
 *         ENTERING VB2000 INTERFACED INTO GAMESS(US)         *
 *                                                            *
 **************************************************************

 **************************************************************
 *                                                            *
 *                        V B 2 0 0 0                         *
 *                                                            *
 *       An ab initio Valence-Bond Program Based on the       *
 *           Generalized Product Function Method and          *
 *                   the Algebrant Algorithm                  *
 *                                                            *
 *                   Version 2.7 October 2013                 *
 *                      GAMESS(US) Version                    *
 *                     Compiler: gfortran                     *
 *                                                            *
 *         Jiabo Li*, Brian Duke** and Roy McWeeny***         *
 *                                                            *
 *        * SciNet Technologies, 9943 Fieldthorn St.,         *
 *                   San Diego, CA 92127, USA                 *
 *                                                            *
 *  ** Monash University Institute of Pharmaceutical Sciences,*
 *     381 Royal Pde, Parkville, Victoria, 3052, Australia    *
 *                                                            *
 * *** Department of Chemistry, University of Pisa,           *
 *     56100 Pisa, Italy                                      *
 *                                                            *
 *  Reference for the software:                               *
 *     Jiabo Li, Brian Duke, and Roy McWeeny, VB2000 Version  *
 *     2.7, SciNet Technologies, San Diego, CA, 2013          *
 *     URL: http://www.scinetec.com or http://www.vb2000.net  *
 *                                                            *
 *  References for the theory:                                *
 *     General:                                               *
 *     Jiabo Li, and Roy McWeeny, "VB2000: Pushing Valence    *
 *     Bond Theory to New Limits", Int. J. Quantum Chem.,     *
 *     89(2002)208-216.                                       *
 *                                                            *
 *     Spin densities:-                                       *
 *     Jiabo Li, Brian J. Duke, Thomas M. Klapoetke, and Roy  *
 *     McWeeny, Spin-Density of Spin-Free Valence Bond Wave   *
 *     Functions and Its Implementation in VB2000. J. Theor.  *
 *     Comp. Chem. 7(2008)853-867.                            *
 *                                                            *
 *     Spin coupled - n electrons in m orbitals:-             *
 *     Peter B. Karadakov, David L. Cooper, Brian J. Duke,    *
 *     and Jiabo Li, Spin-Coupled Theory for N Electrons in   *
 *     M Orbitals Active Spaces,  J. Phys. Chem. A, 116,      *
 *     7238 - 7244, 2012                                      *
 *                                                            *
 *  Copyright (C) 2000-2013 by SciNet Technologies            *
 **************************************************************

 JOB NAME IS exam-vb21                                                       

 VB2000 DIRECTORY IS: /home/brian/qchem/gamess/vb2000                                                 
 MAXIMUM MEMORY USE IS:     6500000
 THIS IS TAKEN AS THE MAXIMUM OF THE UNUSED MEMORY REQUESTED
 IN GAMESS $SYSTEM BLOCK AND MEMORY REQUESTED IN VB2000 DATA

 Input of molecule
 =================
 #! CASVB(5,4)/D95 PRINTALL SPDEN                                                
                                                                                 
 Title: TEST H2F. CASVB WITH 5 ELECTRONS IN 4 ORBITALS                                  

 Charge =  0 Multiplicity =  2

 ATOM      ATOMIC                      COORDINATES (ANGS)
           CHARGE         X                   Y                   Z
 H           1.0     0.0000000000       -1.1799999995        0.0000000000
 F           9.0     0.0000000000        0.0000000000        0.0000000000
 H           1.0     0.0000000000        1.1799999995        0.0000000000

 Hartree-Fock Energy from Gamess run =    -100.422252546392

 The above open shell energy from Gamess is a ROHF
 energy and is different from the energy given by
 a pure VB2000 run. It is much lower. It gives a good
 starting point for the VB run and gives the same VB
 energy as a pure VB2000 run.

 Basis set size =   14

                    PARAMETER LIMIT VALUES
 Max. no. of atoms                    MAXCEN =   200
 Max. no. of basis functions          MAXBFN =   726
 Max. no. of shells                   MAXSHL =   500
 Max. no. of total primitives         MAXEXP =  1000
 Max. no. of primitives per orbital   MAXPRM =    15
 Max. no. of atoms * no. of orbitals  MAXNAB = 72600
 Increase max basis set size by       NEXTRA =    20
 Max. size for Rumer data             MAXST1 = 33334
 Max. no. of orbitals in group        MAXNOB =   200
 Max. no. of CUBE orbitals            MAXCUB =   100
 Max. no. of groups                   MAXGRP =    99

 BASIS FROM #! LINE = D95                 

 VBO LIB IS: /home/brian/qchem/gamess/vb2000/VBOLIB/VBOLIBD95                                
 IS BASIS D95 CORRECTLY DEFINED IN $DATA GROUP?

 Molecular orbitals by HF method
 ===============================================================================
 MO#                       1         2         3         4         5         6
 E(a.u.)             -26.322    -1.561    -0.698    -0.659    -0.659    -0.077
 -------------------------------------------------------------------------------

   1  1  H     s    -0.00001  -0.04888   0.16705   0.00000   0.00000   0.27444
   2  1  H     s     0.00020  -0.00803   0.08117   0.00000   0.00000   0.60131
   3  2  F     s    -0.57995   0.14439   0.00000   0.00000   0.00000   0.04770
   4  2  F     s    -0.46220   0.19802   0.00000   0.00000   0.00000   0.06532
   5  2  F     s     0.00046  -0.58114   0.00000   0.00000   0.00000  -0.18067
   6  2  F     s    -0.00193  -0.50990   0.00000   0.00000   0.00000  -0.53563
   7  2  F     x     0.00000   0.00000   0.00000   0.71463  -0.25765   0.00000
   8  2  F     y     0.00000   0.00000  -0.60072   0.00000   0.00000   0.00000
   9  2  F     z     0.00000   0.00000   0.00000   0.25765   0.71463   0.00000
  10  2  F     x     0.00000   0.00000   0.00000   0.35315  -0.12732   0.00000
  11  2  F     y     0.00000   0.00000  -0.31239   0.00000   0.00000   0.00000
  12  2  F     z     0.00000   0.00000   0.00000   0.12732   0.35315   0.00000
  13  3  H     s    -0.00001  -0.04888  -0.16705   0.00000   0.00000   0.27444
  14  3  H     s     0.00020  -0.00803  -0.08117   0.00000   0.00000   0.60131

 MO#                       7         8         9        10        11
 E(a.u.)               0.048     0.886     0.959     1.013     1.013
 -------------------------------------------------------------------------------

   1  1  H     s    -0.18209  -0.90751   0.74277   0.00000   0.00000
   2  1  H     s    -0.91707   0.90592  -1.05904   0.00000   0.00000
   3  2  F     s     0.00000  -0.01033   0.00000   0.00000   0.00000
   4  2  F     s     0.00000  -0.01746   0.00000   0.00000   0.00000
   5  2  F     s     0.00000   0.13021   0.00000   0.00000   0.00000
   6  2  F     s     0.00000  -0.49034   0.00000   0.00000   0.00000
   7  2  F     x     0.00000   0.00000   0.00000   0.27784  -0.81811
   8  2  F     y    -0.44510   0.00000   0.57905   0.00000   0.00000
   9  2  F     z     0.00000   0.00000   0.00000   0.81811   0.27784
  10  2  F     x     0.00000   0.00000   0.00000  -0.34971   1.02973
  11  2  F     y    -0.67981   0.00000  -0.78915   0.00000   0.00000
  12  2  F     z     0.00000   0.00000   0.00000  -1.02973  -0.34971
  13  3  H     s     0.18209  -0.90751  -0.74277   0.00000   0.00000
  14  3  H     s     0.91707   0.90592   1.05904   0.00000   0.00000


 Localized molecular orbitals and the bond labels
 ===============================================================================
 LMO#                      1         2         3         4         5         6
 E(a.u.)             -26.045    -1.678    -0.698    -0.659    -0.659    -0.237
 Bond Label            2:(0)     2:(1)     2:(2)     2:(3)     2:(4)     MC(1)
 -------------------------------------------------------------------------------

   1  1  H     s     0.00332   0.03886   0.16705  -0.00000  -0.00000   0.27602
   2  1  H     s    -0.00295   0.17879   0.08117  -0.00000  -0.00000   0.57417
   3  2  F     s    -0.59225   0.09187   0.00000   0.00000   0.00000   0.01608
   4  2  F     s    -0.48094   0.16008   0.00000   0.00000   0.00000   0.01315
   5  2  F     s     0.06300  -0.60526  -0.00000   0.00001   0.00001   0.00772
   6  2  F     s     0.05547  -0.64818  -0.00000   0.00001   0.00001  -0.35170
   7  2  F     x     0.00000   0.00001   0.00000   0.71462  -0.25765   0.00000
   8  2  F     y    -0.00000   0.00000  -0.60072   0.00000   0.00000   0.00000
   9  2  F     z     0.00001   0.00001   0.00000   0.25765   0.71462   0.00000
  10  2  F     x     0.00000   0.00000   0.00000   0.35315  -0.12733   0.00000
  11  2  F     y    -0.00000   0.00000  -0.31239   0.00000   0.00000   0.00000
  12  2  F     z     0.00000   0.00001   0.00000   0.12733   0.35315   0.00000
  13  3  H     s     0.00332   0.03886  -0.16705  -0.00000  -0.00000   0.27602
  14  3  H     s    -0.00295   0.17879  -0.08117  -0.00000  -0.00000   0.57417


 Mulliken population of localized molecular orbitals
 ===============================================================================
 LMO#                      1         2         3         4         5         6
 E(a.u.)             -26.045    -1.678    -0.698    -0.659    -0.659    -0.237
 Bond Label            2:(0)     2:(1)     2:(2)     2:(3)     2:(4)     MC(1)
 -------------------------------------------------------------------------------

   1         H       0.00010  -0.08682   0.22876  -0.00000  -0.00000   1.13318
   2         F       1.99980   2.17363   1.54249   2.00000   2.00000  -0.26636
   3         H       0.00010  -0.08682   0.22876  -0.00000  -0.00000   1.13318

 MODIFICATION OF LMO GROUP ASSIGNMENT:
 LMO# = 1 GROUP# = 1
 LMO# = 2 GROUP# = 2
 LMO# = 3 GROUP# = 2
 LMO# = 4 GROUP# = 1
 LMO# = 5 GROUP# = 1
 LMO# = 6 GROUP# = 2
 WARNING: MELEK != MELE(K)

 PARTITIONING OF LMOs INTO GROUPS ($LMOGRP)
 =======================================================================
 LMO#     1  2  3  4  5  6
 Group#   1  2  2  1  1  2
 Split    0  0  0  0  0  1




 Initial guess of orbitals
 ===============================================================================
 ORBITAL#                  1         2         3         4         5         6
 Bond Label            2:(0)     2:(3)     2:(4)   2->3(1)   3->1(1)   2->1(1)
 -------------------------------------------------------------------------------

   1  1  H     s     0.00332  -0.00000  -0.00000  -0.00030  -0.00001  -0.00030
   2  1  H     s    -0.00295  -0.00000  -0.00000   0.00027   0.00001   0.00027
   3  2  F     s    -0.59225   0.00000   0.00000  -0.08311   0.00231  -0.08311
   4  2  F     s    -0.48094   0.00000   0.00000  -0.14940   0.00188  -0.14940
   5  2  F     s     0.06300   0.00001   0.00001   0.70152  -0.00025   0.70152
   6  2  F     s     0.05547   0.00001   0.00001   0.07792  -0.00022   0.07792
   7  2  F     x     0.00000   0.71462  -0.25765  -0.00000  -0.00000  -0.00000
   8  2  F     y    -0.00000   0.00000   0.00000   0.63132   0.00000  -0.63132
   9  2  F     z     0.00001   0.25765   0.71462  -0.00001  -0.00000  -0.00001
  10  2  F     x     0.00000   0.35315  -0.12733  -0.00000  -0.00000  -0.00000
  11  2  F     y    -0.00000   0.00000   0.00000   0.13833   0.00000  -0.13833
  12  2  F     z     0.00000   0.12733   0.35315  -0.00000  -0.00000  -0.00000
  13  3  H     s     0.00332  -0.00000  -0.00000  -0.00030   0.59536  -0.00030
  14  3  H     s    -0.00295  -0.00000  -0.00000   0.00027   0.49385   0.00027

 ORBITAL#                  7
 Bond Label          1->2(1)
 -------------------------------------------------------------------------------

   1  1  H     s     0.59536
   2  1  H     s     0.49385
   3  2  F     s     0.00231
   4  2  F     s     0.00188
   5  2  F     s    -0.00025
   6  2  F     s    -0.00022
   7  2  F     x    -0.00000
   8  2  F     y     0.00000
   9  2  F     z    -0.00000
  10  2  F     x    -0.00000
  11  2  F     y     0.00000
  12  2  F     z    -0.00000
  13  3  H     s    -0.00001
  14  3  H     s     0.00001


      GENERAL CONTROLS ($GENCTL)
 ====================================
 Number of electron groups       =    2
 Maximum macro-iterations        =   12
 Energy threshold           = 10**(- 6)
 Restart calculation(0/1/2)      =    0
 Group#                     1  2
 Num. of electrons          6  5
 Num. of spins              0  1
 Num. of orbitals           3  4
 Method#                    1  4

 SYMBOLIC VB STRUCTURE(S) OF GROUP  2
 STR. NO.       RUMER PATTERN  
     1         1  1   2  3   4
     2         1  1   2  4   3
     3         2  2   3  4   1
     4         2  2   3  1   4
     5         3  3   4  1   2
     6         3  3   4  2   1
     7         4  4   1  2   3
     8         4  4   1  3   2
     9         1  1   2  2   3
    10         1  1   2  2   4
    11         2  2   3  3   4
    12         2  2   3  3   1
    13         3  3   4  4   1
    14         3  3   4  4   2
    15         1  1   3  3   4
    16         1  1   3  3   2
    17         1  1   4  4   2
    18         1  1   4  4   3
    19         2  2   4  4   1
    20         2  2   4  4   3


 MAP FILE IS: /home/brian/qchem/gamess/vb2000/MAP/MAP0501t                                    

 MAP FILE IS: /home/brian/qchem/gamess/vb2000/MAP/MAP0501t                                    

 ENERGY AND DIFF OF MACROITER    1 =   -100.13560248   -100.13560248

 MAP FILE IS: /home/brian/qchem/gamess/vb2000/MAP/MAP0501t                                    

 ENERGY AND DIFF OF MACROITER    2 =   -100.44110577     -0.30550329

 MAP FILE IS: /home/brian/qchem/gamess/vb2000/MAP/MAP0501t                                    

 ENERGY AND DIFF OF MACROITER    3 =   -100.46593937     -0.02483360

 MAP FILE IS: /home/brian/qchem/gamess/vb2000/MAP/MAP0501t                                    

 ENERGY AND DIFF OF MACROITER    4 =   -100.46826486     -0.00232549

 MAP FILE IS: /home/brian/qchem/gamess/vb2000/MAP/MAP0501t                                    

 ENERGY AND DIFF OF MACROITER    5 =   -100.46883797     -0.00057311

 MAP FILE IS: /home/brian/qchem/gamess/vb2000/MAP/MAP0501t                                    

 ENERGY AND DIFF OF MACROITER    6 =   -100.46897219     -0.00013421

 MAP FILE IS: /home/brian/qchem/gamess/vb2000/MAP/MAP0501t                                    

 ENERGY AND DIFF OF MACROITER    7 =   -100.46900868     -0.00003649

 MAP FILE IS: /home/brian/qchem/gamess/vb2000/MAP/MAP0501t                                    

 ENERGY AND DIFF OF MACROITER    8 =   -100.46901734     -0.00000866

 MAP FILE IS: /home/brian/qchem/gamess/vb2000/MAP/MAP0501t                                    

 ENERGY AND DIFF OF MACROITER    9 =   -100.46901980     -0.00000245

 MAP FILE IS: /home/brian/qchem/gamess/vb2000/MAP/MAP0501t                                    

 ENERGY AND DIFF OF MACROITER   10 =   -100.46902038     -0.00000058

 MAP FILE IS: /home/brian/qchem/gamess/vb2000/MAP/MAP0501t                                    


 OVERLAP MATRIX OF VB ORBITALS FOR GROUP   2

        1      2      3      4
 ===============================
   1 1.0000
   2 0.4472 1.0000
   3 0.0200 0.0426 1.0000
   4 0.0428-0.0565 0.4473 1.0000

 MAP FILE IS: /home/brian/qchem/gamess/vb2000/MAP/MAP0501t                                    

 Normalized structure coefficients
 -0.4614 -0.2735 -0.0111  0.0210 -0.4613 -0.2734 -0.0110  0.0210  0.0355  0.0050
  0.0039 -0.0830  0.0355  0.0050  0.3494  0.3494  0.0039 -0.0830  0.0074  0.0074

 ====Mulliken Weight====
  0.2121  0.0608  0.0035  0.0050  0.2120  0.0608  0.0035  0.0050  0.0008  0.0000
  0.0012  0.0262  0.0008 -0.0000  0.1916  0.1916  0.0012  0.0262 -0.0011 -0.0011

 ====Lowdin   Weight====
  0.0656  0.0183  0.0139  0.0039  0.0656  0.0183  0.0139  0.0039  0.0011  0.0000
  0.0222  0.0538  0.0011  0.0000  0.3201  0.3201  0.0223  0.0538  0.0011  0.0011

 ====Hiberty  Weight====
  0.2543  0.0893  0.0001  0.0005  0.2542  0.0893  0.0001  0.0005  0.0015  0.0000
  0.0000  0.0082  0.0015  0.0000  0.1459  0.1459  0.0000  0.0082  0.0001  0.0001


 SPIN DENSITY ON ATOMS
 ---------------------
 ATOM      DENSITY

    1      0.56737
    2     -0.13473
    3      0.56737

 ---------------------


 ENERGY AND DIFF OF MACROITER   11 =   -100.46902055     -0.00000018


 MULLIKEN CHARGES ON ATOMS
 -------------------------
  ATOM             CHARGE 

    1             0.18370
    2            -0.36740
    3             0.18370

 -------------------------


 ORBITALS OF EACH ELECTRON GROUP IN AO BASIS: ORBITAL(GROUP)
 ===========================================================================
    Orbital#             1         2         3         4         5         6
      Group#             1         1         1         2         2         2
 ---------------------------------------------------------------------------
  AO# LABELS
   1  1  H     s  -0.00058   0.00000   0.00000  -0.00303  -0.08686   0.04533
   2  1  H     s  -0.00030   0.00000   0.00000   0.00565   0.08836  -0.04384
   3  2  F     s   0.58164  -0.00001  -0.00001  -0.10031  -0.02477  -0.10029
   4  2  F     s   0.46457  -0.00000  -0.00000  -0.14051  -0.03552  -0.14048
   5  2  F     s  -0.00750   0.00000   0.00000   0.42539   0.11595   0.42530
   6  2  F     s  -0.00421   0.00000   0.00000   0.38339  -0.10558   0.38330
   7  2  F     x   0.00001  -0.12674   0.75228   0.00000  -0.00000  -0.00000
   8  2  F     y  -0.00000   0.00000  -0.00000   0.58043  -0.08093  -0.58055
   9  2  F     z  -0.00001  -0.75228  -0.12674   0.00000  -0.00000  -0.00000
  10  2  F     x   0.00000  -0.06169   0.36617   0.00000   0.00000   0.00000
  11  2  F     y   0.00000   0.00000  -0.00000   0.19746   0.11049  -0.19751
  12  2  F     z  -0.00000  -0.36617  -0.06169  -0.00000   0.00000   0.00000
  13  3  H     s  -0.00058   0.00000   0.00000   0.04532   0.46832  -0.00305
  14  3  H     s  -0.00030   0.00000   0.00000  -0.04385   0.57585   0.00565

 ===========================================================================
    Orbital#             7
      Group#             2
 ---------------------------------------------------------------------------
  AO# LABELS
   1  1  H     s   0.46831
   2  1  H     s   0.57585
   3  2  F     s  -0.02477
   4  2  F     s  -0.03553
   5  2  F     s   0.11597
   6  2  F     s  -0.10557
   7  2  F     x   0.00000
   8  2  F     y   0.08090
   9  2  F     z   0.00000
  10  2  F     x  -0.00000
  11  2  F     y  -0.11050
  12  2  F     z  -0.00000
  13  3  H     s  -0.08685
  14  3  H     s   0.08837


 CALCULATION OF POSITION AND EXTENT OF VB ORBITALS

 DEFAULT CENTROIDS AND EXTENTS.

 MOLECULAR GEOMETRY ABOUT CENTER OF MASS

  Atom#   ATOMIC NO.     X        Y        Z
    1         1        0.0000  -1.1800   0.0000
    2         9        0.0000   0.0000   0.0000
    3         1        0.0000   1.1800   0.0000

 CENTROIDS OF CHARGE FOR EACH VB GROUP & DISTANCES FROM 3 ATOMS

                                                  DISTANCES FROM ATOMS
 Orbital#   Group#       X        Y        Z        1        2        3
    4         2        0.0000   0.3093  -0.0000   1.4893   0.3093   0.8707
    5         2        0.0000   1.1536   0.0000   2.3336   1.1536   0.0264
    6         2        0.0000  -0.3093  -0.0000   0.8707   0.3093   1.4893
    7         2       -0.0000  -1.1536  -0.0000   0.0264   1.1536   2.3336

 EXTENT OF ORBITAL MEASURED BY (<R**2>)

 Orbital#   Group#     <X**2>   <Y**2>   <Z**2>   <R**2> Sqrt<R**2>

    4         2        0.0920   0.0780   0.0920   0.2619   0.5118
    5         2        0.2255   0.2672   0.2255   0.7183   0.8475
    6         2        0.0919   0.0781   0.0919   0.2620   0.5118
    7         2        0.2255   0.2672   0.2255   0.7183   0.8475

 WORDS OF DYNAMIC MEMORY USED IN VB2000 CODE ONLY:        9802
 NOTE THAT THIS IS IN ADDITION TO MEMORY USED BY GAMESS
 PRINTED NEAR END OF OUTPUT. ADD THE TWO AMOUNTS TO GIVE
 THE TOTAL MEMORY USED BY THE JOB

 STATISTICS OF CPU TIMES (SECONDS)
 CPU TIME FOR INITIALIZATION        0.020
 CPU TIME FOR MACROITERATION        0.120
 TOTAL CPU TIME                     0.140

 STEP CPU TIME =     0.19 TOTAL CPU TIME =        0.2 (    0.0 MIN)
 TOTAL WALL CLOCK TIME=        0.2 SECONDS, CPU UTILIZATION IS  95.65%

 **************************************************************
 *                                                            *
 *                  ENDING GAMESS(US) VB2000                  *
 *                                                            *
 *  Properties for individual molecular orbitals are correct  *
 *   only for VB modified orbitals in a Hartree-Fock group.   *
 *                                                            *
 **************************************************************

     ----------------------------------
     PROPERTIES FOR THE VB WAVEFUNCTION
     ----------------------------------

          -----------------
          ENERGY COMPONENTS
          -----------------

         WAVEFUNCTION NORMALIZATION =       1.0000000000

                ONE ELECTRON ENERGY =    -156.9429650322
                TWO ELECTRON ENERGY =      48.1775215038
           NUCLEAR REPULSION ENERGY =       8.2964229754
                                      ------------------
                       TOTAL ENERGY =    -100.4690205530

 ELECTRON-ELECTRON POTENTIAL ENERGY =      48.1775215038
  NUCLEUS-ELECTRON POTENTIAL ENERGY =    -257.4974888269
   NUCLEUS-NUCLEUS POTENTIAL ENERGY =       8.2964229754
                                      ------------------
             TOTAL POTENTIAL ENERGY =    -201.0235443478
               TOTAL KINETIC ENERGY =     100.5545237947
                 VIRIAL RATIO (V/T) =       1.9991496828

          ---------------------------------------
          MULLIKEN AND LOWDIN POPULATION ANALYSES
          ---------------------------------------

     ATOMIC MULLIKEN POPULATION IN EACH MOLECULAR ORBITAL

                      1          2          3          4          5

                  2.000000   2.000000   2.000000   2.000000   2.000000

    1            -0.000034  -0.000000  -0.000000   0.000000   0.000000
    2             2.000069   2.000000   2.000000   2.000000   2.000000
    3            -0.000034  -0.000000  -0.000000   0.000000   0.000000

                      6

                  1.000000

    1             0.507970
    2            -0.015940
    3             0.507970

     ATOMIC SPIN POPULATION (ALPHA MINUS BETA)
       ATOM         MULL.POP.                    LOW.POP.
    1 H             0.567367                     0.501362
    2 F            -0.134733                    -0.002724
    3 H             0.567367                     0.501362

               ----- POPULATIONS IN EACH AO -----
                             MULLIKEN      LOWDIN
              1  H  1  S      0.37276     0.37813
              2  H  1  S      0.44354     0.45427
              3  F  2  S      1.13132     1.07409
              4  F  2  S      0.86306     0.91174
              5  F  2  S      1.03876     1.01486
              6  F  2  S      0.89736     0.90937
              7  F  2  X      1.44410     1.38601
              8  F  2  Y      0.97019     0.89161
              9  F  2  Z      1.44410     1.38601
             10  F  2  X      0.55590     0.61399
             11  F  2  Y      0.46671     0.53352
             12  F  2  Z      0.55590     0.61399
             13  H  3  S      0.37276     0.37813
             14  H  3  S      0.44354     0.45427

          ----- MULLIKEN ATOMIC OVERLAP POPULATIONS -----
          (OFF-DIAGONAL ELEMENTS NEED TO BE MULTIPLIED BY 2)

             1           2           3

    1    0.8275263
    2   -0.0727164   9.5128377
    3    0.0614876  -0.0727164   0.8275263

          TOTAL MULLIKEN AND LOWDIN ATOMIC POPULATIONS
       ATOM         MULL.POP.    CHARGE          LOW.POP.     CHARGE
    1 H             0.816298    0.183702         0.832403    0.167597
    2 F             9.367405   -0.367405         9.335194   -0.335194
    3 H             0.816298    0.183702         0.832403    0.167597

          -------------------------------
          BOND ORDER AND VALENCE ANALYSIS     BOND ORDER THRESHOLD=0.050
          -------------------------------

                   BOND                       BOND                       BOND
  ATOM PAIR DIST  ORDER      ATOM PAIR DIST  ORDER      ATOM PAIR DIST  ORDER
    1   2  1.180  0.311        1   3  2.360  0.253        2   3  1.180  0.311

                       TOTAL       BONDED        FREE
      ATOM            VALENCE     VALENCE     VALENCE
    1 H                 0.964       0.564       0.400
    2 F                 0.756       0.621       0.134
    3 H                 0.964       0.564       0.400

          -----------------------------------------
          ATOMIC SPIN DENSITY AT THE NUCLEUS (A.U.)
          -----------------------------------------
                            SPIN DENS    ALPHA DENS     BETA DENS
    1  H            1.0     0.1819001       0.24167       0.05977
    2  F            9.0     1.0853361     213.95408     212.86874
    3  H            1.0     0.1819001       0.24167       0.05977

          ---------------------
          ELECTROSTATIC MOMENTS
          ---------------------

 POINT   1           X           Y           Z (BOHR)    CHARGE
                 0.000000    0.000000    0.000000        0.00 (A.U.)
         DX          DY          DZ         /D/  (DEBYE)
     0.000000    0.000000   -0.000000    0.000000
        QXX         QYY         QZZ         QXY         QXZ         QYZ  (BUCKINGHAMS)
    -1.008127    2.016254   -1.008127   -0.000000   -0.000000   -0.000000
        OXXX        OXXY        OXXZ        OXYY        OYYY        OYYZ
    -0.000000   -0.000000    0.000000    0.000000    0.000000   -0.000000
        OXZZ        OYZZ        OZZZ        OXYZ  (X10**34 ESU-CM**3)
    -0.000000   -0.000000    0.000000    0.000000

          ----------------
          ELECTRON DENSITY
          ----------------
  POINT      X         Y         Z             DENSITY
                     (BOHR)                    (A.U.)
     1     0.00000  -2.22988   0.00000         0.301430
     2     0.00000   0.00000   0.00000       426.822817
     3     0.00000   2.22988   0.00000         0.301430
     4     1.88973   0.00000   0.00000         0.032532
     5    -1.88973   0.00000   0.00000         0.032532
     6     0.00000   3.77945   1.13384         0.005905

          -----------------------
          ELECTROSTATIC POTENTIAL
          -----------------------

  THE CONTRIBUTION FROM EACH NUCLEUS AT ITS OWN POSITION IS NEGLECTED

   POINT      X          Y          Z           ELECTRONIC      NUCLEAR         TOTAL
                       (BOHR)                                    (A.U.)
      1    0.00000   -2.22988    0.00000        -5.230101       4.260325      -0.969775
      2    0.00000    0.00000    0.00000       -27.448588       0.896911     -26.551677
      3    0.00000    2.22988    0.00000        -5.230101       4.260325      -0.969775

          -----------------------
          ELECTRIC FIELD/GRADIENT 
          -----------------------

  THE CONTRIBUTION FROM EACH NUCLEUS AT ITS OWN POSITION IS NEGLECTED

 POINT     1             X               Y               Z       (BOHR)
                     0.000000       -2.229877        0.000000
            EFX             EFY             EFZ            /EF/       (A.U.)
        -0.000000       -0.037965       -0.000000        0.037965
           EFGXX           EFGYY           EFGZZ           EFGXY           EFGXZ           EFGYZ
         0.069234       -0.138468        0.069234        0.000000        0.000000        0.000000

 POINT     2             X               Y               Z       (BOHR)
                     0.000000        0.000000        0.000000
            EFX             EFY             EFZ            /EF/       (A.U.)
        -0.000000       -0.000000        0.000000        0.000000
           EFGXX           EFGYY           EFGZZ           EFGXY           EFGXZ           EFGYZ
         2.159106       -4.318212        2.159106       -0.000000        0.000000        0.000000

 POINT     3             X               Y               Z       (BOHR)
                     0.000000        2.229877        0.000000
            EFX             EFY             EFZ            /EF/       (A.U.)
         0.000000        0.037965        0.000000        0.037965
           EFGXX           EFGYY           EFGZZ           EFGXY           EFGXZ           EFGYZ
         0.069234       -0.138468        0.069234        0.000000        0.000000        0.000000
 ...... END OF PROPERTY EVALUATION ......
 STEP CPU TIME =     0.00 TOTAL CPU TIME =        0.2 (    0.0 MIN)
 TOTAL WALL CLOCK TIME=        0.2 SECONDS, CPU UTILIZATION IS  91.67%
               580000  WORDS OF DYNAMIC MEMORY USED
 EXECUTION OF GAMESS TERMINATED NORMALLY Mon Oct 14 07:29:54 2013
 DDI: 263624 bytes (0.3 MB / 0 MWords) used by master data server.

 ----------------------------------------
 CPU timing information for all processes
 ========================================
 0: 0.184 + 0.40 = 0.224
 ----------------------------------------
 ddikick.x: exited gracefully.
unset echo
----- accounting info -----
Files used on the master node titch-64 were:
-rw-r--r-- 1 brian brian    2628 Oct 14 07:29 /scr/brian/exam-vb21.F05
-rw-rw-r-- 1 brian brian  180016 Oct 14 07:29 /scr/brian/exam-vb21.F08
-rw-rw-r-- 1 brian brian 1832320 Oct 14 07:29 /scr/brian/exam-vb21.F10
-rw-rw-r-- 1 brian brian   32912 Aug 22 16:52 /scr/brian/exam-vb21.TEMP-MOD
-rw-rw-r-- 1 brian brian    2916 Oct 14 07:29 /scr/brian/exam-vb21.V80
-rw-rw-r-- 1 brian brian       0 Oct 14 07:29 /scr/brian/exam-vb21.V82
-rw-rw-r-- 1 brian brian       0 Oct 14 07:29 /scr/brian/exam-vb21.V83
-rw-rw-r-- 1 brian brian    1984 Oct 14 07:29 /scr/brian/exam-vb21.V84
-rw-rw-r-- 1 brian brian   60616 Oct 14 07:29 /scr/brian/exam-vb21.V85
-rw-rw-r-- 1 brian brian  196592 Oct 14 07:29 /scr/brian/exam-vb21.V86
-rw-rw-r-- 1 brian brian  196592 Oct 14 07:29 /scr/brian/exam-vb21.V87
-rw-rw-r-- 1 brian brian       0 Oct 14 07:29 /scr/brian/exam-vb21.V89
ls: No match.
ls: No match.
ls: No match.
Mon Oct 14 07:29:57 EST 2013
0.080u 0.008s 0:03.39 2.3%	0+0k 8+16io 0pf+0w
