----- GAMESS execution script 'rungms' -----
This job is running on host titch-64
under operating system Linux at Mon Oct 14 07:28:29 EST 2013
Available scratch disk space (Kbyte units) at beginning of the job is
Filesystem     1K-blocks      Used Available Use% Mounted on
/dev/sda1      945022356 138267396 758750608  16% /
GAMESS temporary binary files will be written to /scr/brian
GAMESS supplementary output files will be written to /home/brian/scr
Copying input file exam-vb09.inp to your run's scratch directory...
cp tests/exam-vb09.inp /scr/brian/exam-vb09.F05
unset echo
/home/brian/qchem/gamess/ddikick.x /home/brian/qchem/gamess/gamess.01.x exam-vb09 -ddi 1 1 titch-64 -scr /scr/brian

 Distributed Data Interface kickoff program.
 Initiating 1 compute processes on 1 nodes to run the following command:
 /home/brian/qchem/gamess/gamess.01.x exam-vb09 

          ******************************************************
          *         GAMESS VERSION =  1 MAY 2013 (R1)          *
          *             FROM IOWA STATE UNIVERSITY             *
          * M.W.SCHMIDT, K.K.BALDRIDGE, J.A.BOATZ, S.T.ELBERT, *
          *   M.S.GORDON, J.H.JENSEN, S.KOSEKI, N.MATSUNAGA,   *
          *          K.A.NGUYEN, S.J.SU, T.L.WINDUS,           *
          *       TOGETHER WITH M.DUPUIS, J.A.MONTGOMERY       *
          *         J.COMPUT.CHEM.  14, 1347-1363(1993)        *
          **************** 64 BIT LINUX VERSION ****************

  SINCE 1993, STUDENTS AND POSTDOCS WORKING AT IOWA STATE UNIVERSITY
  AND ALSO IN THEIR VARIOUS JOBS AFTER LEAVING ISU HAVE MADE IMPORTANT
  CONTRIBUTIONS TO THE CODE:
     IVANA ADAMOVIC, CHRISTINE AIKENS, YURI ALEXEEV, POOJA ARORA,
     ANDREY ASADCHEV, ROB BELL, PRADIPTA BANDYOPADHYAY, JONATHAN BENTZ,
     BRETT BODE, GALINA CHABAN, WEI CHEN, CHEOL HO CHOI, PAUL DAY,
     ALBERT DEFUSCO, TIM DUDLEY, DMITRI FEDOROV, GRAHAM FLETCHER,
     MARK FREITAG, KURT GLAESEMANN, DAN KEMP, GRANT MERRILL,
     NORIYUKI MINEZAWA, JONATHAN MULLIN, TAKESHI NAGATA,
     SEAN NEDD, HEATHER NETZLOFF, BOSILJKA NJEGIC, RYAN OLSON, MIKE PAK,
     JIM SHOEMAKER, LYUDMILA SLIPCHENKO, SAROM SOK, JIE SONG,
     TETSUYA TAKETSUGU, SIMON WEBB, SOOHAENG YOO, FEDERICO ZAHARIEV

  ADDITIONAL CODE HAS BEEN PROVIDED BY COLLABORATORS IN OTHER GROUPS:
     IOWA STATE UNIVERSITY:
          JOE IVANIC, LAIMUTIS BYTAUTAS, KLAUS RUEDENBERG
     UNIVERSITY OF TOKYO: KIMIHIKO HIRAO, TAKAHITO NAKAJIMA,
          TAKAO TSUNEDA, MUNEAKI KAMIYA, SUSUMU YANAGISAWA,
          KIYOSHI YAGI, MAHITO CHIBA, SEIKEN TOKURA, NAOAKI KAWAKAMI
     UNIVERSITY OF AARHUS: FRANK JENSEN
     UNIVERSITY OF IOWA: VISVALDAS KAIRYS, HUI LI
     NATIONAL INST. OF STANDARDS AND TECHNOLOGY: WALT STEVENS, DAVID GARMER
     UNIVERSITY OF PISA: BENEDETTA MENNUCCI, JACOPO TOMASI
     UNIVERSITY OF MEMPHIS: HENRY KURTZ, PRAKASHAN KORAMBATH
     UNIVERSITY OF ALBERTA: TOBY ZENG, MARIUSZ KLOBUKOWSKI
     UNIVERSITY OF NEW ENGLAND: MARK SPACKMAN
     MIE UNIVERSITY: HIROAKI UMEDA
     MICHIGAN STATE UNIVERSITY:
          KAROL KOWALSKI, MARTA WLOCH, JEFFREY GOUR, JESSE LUTZ,
          WEI LI, PIOTR PIECUCH
     UNIVERSITY OF SILESIA: MONIKA MUSIAL, STANISLAW KUCHARSKI
     FACULTES UNIVERSITAIRES NOTRE-DAME DE LA PAIX:
          OLIVIER QUINET, BENOIT CHAMPAGNE
     UNIVERSITY OF CALIFORNIA - SANTA BARBARA: BERNARD KIRTMAN
     INSTITUTE FOR MOLECULAR SCIENCE:
          KAZUYA ISHIMURA, MICHIO KATOUDA, AND SHIGERU NAGASE
     UNIVERSITY OF NOTRE DAME: DAN CHIPMAN
     KYUSHU UNIVERSITY:
          HARUYUKI NAKANO,
          FENG LONG GU, JACEK KORCHOWIEC, MARCIN MAKOWSKI, AND YURIKO AOKI,
          HIROTOSHI MORI AND EISAKU MIYOSHI
     PENNSYLVANIA STATE UNIVERSITY:
          TZVETELIN IORDANOV, CHET SWALINA, JONATHAN SKONE,
          SHARON HAMMES-SCHIFFER
     WASEDA UNIVERSITY:
          MASATO KOBAYASHI, TOMOKO AKAMA, TSUGUKI TOUMA,
          TAKESHI YOSHIKAWA, YASUHIRO IKABATA, HIROMI NAKAI
     NANJING UNIVERSITY: SHUHUA LI
     UNIVERSITY OF NEBRASKA:
          PEIFENG SU, DEJUN SI, NANDUN THELLAMUREGE, YALI WANG, HUI LI
     UNIVERSITY OF ZURICH:
          ROBERTO PEVERATI, KIM BALDRIDGE
     N. COPERNICUS UNIVERSITY AND JACKSON STATE UNIVERSITY:
          MARIA BARYSZ

 EXECUTION OF GAMESS BEGUN Mon Oct 14 07:28:29 2013

            ECHO OF THE FIRST FEW INPUT CARDS -
 INPUT CARD>! GAMESS/VB2000 Test 9.                                                         
 INPUT CARD>! This test simply tests the VB2000 part of EXETYP=CHECK.                       
 INPUT CARD>! The data is for the fairly complex trudge run in test 8.                      
 INPUT CARD>!                                                                               
 INPUT CARD>! You should find one reference to the $VB2000 group in the                     
 INPUT CARD>! output. This just lists the first part of the data, giving                    
 INPUT CARD>! the command line, title, charge and multiplity, and coordinates,              
 INPUT CARD>! followed by the heading line of each VB2000 block (every line                 
 INPUT CARD>! that contains a command starting with '$'), all without any                   
 INPUT CARD>! checking. Later, it enters the vb2000 code and progresses,                    
 INPUT CARD>! giving some useful output until it estimates the memory as:                   
 INPUT CARD>!                                                                               
 INPUT CARD>! MEMORY NEEDED:        5334                                                    
 INPUT CARD>! MEMORY ALLOCATED:  6500000                                                    
 INPUT CARD>!                                                                               
 INPUT CARD> $CONTRL SCFTYP=RHF VBTYP=VB2000 COORD=HINT                                     
 INPUT CARD>   RUNTYP=TRUDGE EXETYP=CHECK INTTYP=HONDO $END                                 
 INPUT CARD> $SYSTEM TIMLIM=20 MEMORY=2000000 $END                                          
 INPUT CARD> $GUESS  GUESS=HUCKEL $END                                                      
 INPUT CARD> $TRUDGE OPTMIZ=GEOMETRY NPAR=3                                                 
 INPUT CARD>   IEX(1)=21,31,32 $END                                                         
 INPUT CARD> $TRURST TOLF=0.0001 TOLR=0.001 FNOISE=0.00001 $END                             
 INPUT CARD> $DATA                                                                          
 INPUT CARD>Water D95                                                                       
 INPUT CARD>C1                                                                              
 INPUT CARD>O  8.0  LC 0.00 0.00  0.00 - O K                                                
 INPUT CARD> S    6 1.00                                                                    
 INPUT CARD>1  0.7816540000D+04  0.2031000000D-02                                           
 INPUT CARD>2  0.1175820000D+04  0.1543600000D-01                                           
 INPUT CARD>3  0.2731880000D+03  0.7377100000D-01                                           
 INPUT CARD>4  0.8116960000D+02  0.2476060000D+00                                           
 INPUT CARD>5  0.2718360000D+02  0.6118320000D+00                                           
 INPUT CARD>6  0.3413600000D+01  0.2412050000D+00                                           
 INPUT CARD> S    1 1.00                                                                    
 INPUT CARD>1  0.9532200000D+01  0.1000000000D+01                                           
 INPUT CARD> S    1 1.00                                                                    
 INPUT CARD>1  0.9398000000D+00  0.1000000000D+01                                           
 INPUT CARD> S    1 1.00                                                                    
 INPUT CARD>1  0.2846000000D+00  0.1000000000D+01                                           
 INPUT CARD> P    4 1.00                                                                    
 INPUT CARD>1  0.3518320000D+02  0.1958000000D-01                                           
 INPUT CARD>2  0.7904000000D+01  0.1241890000D+00                                           
 INPUT CARD>3  0.2305100000D+01  0.3947270000D+00                                           
 INPUT CARD>4  0.7171000000D+00  0.6273750000D+00                                           
 INPUT CARD> P    1 1.00                                                                    
 INPUT CARD>1  0.2137000000D+00  0.1000000000D+01                                           
 INPUT CARD>                                                                                
 INPUT CARD>H  1.0  PCC 1.00 0.0 0.00 + O K I                                               
 INPUT CARD> S    3 1.00                                                                    
 INPUT CARD>1  0.1924060000D+02  0.3282800000D-01                                           
 CHECK SHOWS $CONTRL   GROUP SYNTAX IS OK
 CHECK SHOWS $GDDI     GROUP INPUT IS NOT PRESENT
 CHECK SHOWS $SYSTEM   GROUP SYNTAX IS OK
    2000000 WORDS OF MEMORY AVAILABLE
 CHECK SHOWS $LINK     GROUP INPUT IS NOT PRESENT
 CHECK SHOWS $ELG      GROUP INPUT IS NOT PRESENT
 CHECK SHOWS $DANDC    GROUP INPUT IS NOT PRESENT
 CHECK SHOWS $DCCORR   GROUP INPUT IS NOT PRESENT
 CHECK SHOWS $BASIS    GROUP INPUT IS NOT PRESENT
 CHECK SHOWS $NEO      GROUP INPUT IS NOT PRESENT


     RUN TITLE
     ---------
 Water D95                                                                       

 THE POINT GROUP OF THE MOLECULE IS C1      
 THE ORDER OF THE PRINCIPAL AXIS IS     0
 *** WARNING! ATOM   2 SHELL    7 TYPE S HAS NORMALIZATION   1.00000234
 *** WARNING! ATOM   3 SHELL    9 TYPE S HAS NORMALIZATION   1.00000234

 ATOM      ATOMIC                      COORDINATES (BOHR)
           CHARGE         X                   Y                   Z
 O           8.0     0.0000000000        0.0000000000        0.0000000000
 H           1.0     0.0000000000        0.0000000000        1.8897259877
 H           1.0     1.8610168038        0.0000000000       -0.3281474741

          INTERNUCLEAR DISTANCES (ANGS.)
          ------------------------------

                1 O          2 H          3 H     

   1 O       0.0000000    1.0000000 *  1.0000000 *
   2 H       1.0000000 *  0.0000000    1.5320889 *
   3 H       1.0000000 *  1.5320889 *  0.0000000  

  * ... LESS THAN  3.000

 CHECK SHOWS $EXCORR   GROUP INPUT IS NOT PRESENT

     ATOMIC BASIS SET
     ----------------
 THE CONTRACTED PRIMITIVE FUNCTIONS HAVE BEEN UNNORMALIZED
 THE CONTRACTED BASIS FUNCTIONS ARE NOW NORMALIZED TO UNITY

  SHELL TYPE  PRIMITIVE        EXPONENT          CONTRACTION COEFFICIENT(S)

 O         

      1   S       1          7816.5400000    0.002030998165
      1   S       2          1175.8200000    0.015435986053
      1   S       3           273.1880000    0.073770933345
      1   S       4            81.1696000    0.247605776277
      1   S       5            27.1836000    0.611831447183
      1   S       6             3.4136000    0.241204782061

      2   S       7             9.5322000    1.000000000000

      3   S       8             0.9398000    1.000000000000

      4   S       9             0.2846000    1.000000000000

      5   P      10            35.1832000    0.019579982520
      5   P      11             7.9040000    0.124188889130
      5   P      12             2.3051000    0.394726647606
      5   P      13             0.7171000    0.627374439909

      6   P      14             0.2137000    1.000000000000

 H         

      7   S      15            19.2406000    0.032828076968
      7   S      16             2.8992000    0.231208542086
      7   S      17             0.6534000    0.817239916083

      8   S      18             0.1776000    1.000000000000

 H         

      9   S      19            19.2406000    0.032828076968
      9   S      20             2.8992000    0.231208542086
      9   S      21             0.6534000    0.817239916083

     10   S      22             0.1776000    1.000000000000

 TOTAL NUMBER OF BASIS SET SHELLS             =   10
 NUMBER OF CARTESIAN GAUSSIAN BASIS FUNCTIONS =   14
 NUMBER OF ELECTRONS                          =   10
 CHARGE OF MOLECULE                           =    0
 SPIN MULTIPLICITY                            =    1
 NUMBER OF OCCUPIED ORBITALS (ALPHA)          =    5
 NUMBER OF OCCUPIED ORBITALS (BETA )          =    5
 TOTAL NUMBER OF ATOMS                        =    3
 THE NUCLEAR REPULSION ENERGY IS        8.8122319071
 CHECK SHOWS $MASS     GROUP INPUT IS NOT PRESENT
 CHECK SHOWS $NEO      GROUP INPUT IS NOT PRESENT
 CHECK SHOWS $EFIELD   GROUP INPUT IS NOT PRESENT
 CHECK SHOWS $DFT      GROUP INPUT IS NOT PRESENT

     $CONTRL OPTIONS
     ---------------
 SCFTYP=RHF          RUNTYP=TRUDGE       EXETYP=CHECK   
 MPLEVL=       0     CITYP =NONE         CCTYP =NONE         VBTYP =VB2000  
 DFTTYP=NONE         TDDFT =NONE    
 MULT  =       1     ICHARG=       0     NZVAR =       0     COORD =HINT    
 PP    =NONE         RELWFN=NONE         LOCAL =NONE         NUMGRD=       F
 ISPHER=      -1     NOSYM =       0     MAXIT =      30     UNITS =ANGS    
 PLTORB=       F     MOLPLT=       F     AIMPAC=       F     FRIEND=        
 NPRINT=       7     IREST =       0     GEOM  =INPUT   
 NORMF =       0     NORMP =       0     ITOL  =      20     ICUT  =       9
 INTTYP=BEST         GRDTYP=BEST         QMTTOL= 1.0E-06

     $SYSTEM OPTIONS
     ---------------
  REPLICATED MEMORY=     2000000 WORDS (ON EVERY NODE).
 DISTRIBUTED MEMDDI=           0 MILLION WORDS IN AGGREGATE,
 MEMDDI DISTRIBUTED OVER   1 PROCESSORS IS           0 WORDS/PROCESSOR.
 TOTAL MEMORY REQUESTED ON EACH PROCESSOR=     2000000 WORDS.
 TIMLIM=          20.00 MINUTES, OR       0.0 DAYS.
 PARALL= F  BALTYP=  DLB     KDIAG=    0  COREFL= F
 MXSEQ2=     300 MXSEQ3=     150
 CHECK SHOWS $SCRF     GROUP INPUT IS NOT PRESENT
 CHECK SHOWS $PCM      GROUP INPUT IS NOT PRESENT
 CHECK SHOWS $COSGMS   GROUP INPUT IS NOT PRESENT
 CHECK SHOWS $SVP      GROUP INPUT IS NOT PRESENT
 CHECK SHOWS $GRID     GROUP INPUT IS NOT PRESENT
 CHECK SHOWS $PDC      GROUP INPUT IS NOT PRESENT
 CHECK SHOWS $ELDENS   GROUP INPUT IS NOT PRESENT
 CHECK SHOWS $ELFLDG   GROUP INPUT IS NOT PRESENT
 CHECK SHOWS $ELMOM    GROUP INPUT IS NOT PRESENT
 CHECK SHOWS $ELPOT    GROUP INPUT IS NOT PRESENT

          ----------------
          PROPERTIES INPUT
          ----------------

     MOMENTS            FIELD           POTENTIAL          DENSITY
 IEMOM =       1   IEFLD =       0   IEPOT =       0   IEDEN =       0
 WHERE =COMASS     WHERE =NUCLEI     WHERE =NUCLEI     WHERE =NUCLEI  
 OUTPUT=BOTH       OUTPUT=BOTH       OUTPUT=BOTH       OUTPUT=BOTH    
 IEMINT=       0   IEFINT=       0                     IEDINT=       0
                                                       MORB  =       0
 CHECK SHOWS $SCF      GROUP INPUT IS NOT PRESENT
          EXTRAPOLATION IN EFFECT
          SOSCF IN EFFECT
 ORBITAL PRINTING OPTION: NPREO=     1    14     2     1
 CHECK SHOWS $SCFMI    GROUP INPUT IS NOT PRESENT
 CHECK SHOWS $TRANS    GROUP INPUT IS NOT PRESENT

     -------------------------------
     INTEGRAL TRANSFORMATION OPTIONS
     -------------------------------
     NWORD  =            0
     CUTOFF = 1.0E-09     MPTRAN =       0
     DIRTRF =       F     AOINTS =DUP     
 CHECK SHOWS $INTGRL   GROUP INPUT IS NOT PRESENT

          ----------------------
          INTEGRAL INPUT OPTIONS
          ----------------------
 NOPK  =       1 NORDER=       0 SCHWRZ=       F

 CHECK SHOWS $VB2000   GROUP INPUT IS PRESENT

#! VB(4)/D95 PRINTALL                                                           
                                                                                
Water                                                                           
Line 2 test                                                                     
                                                                                
0 1                                                                             
8    0.0000000000    0.0000000000   0.0000000000                                
1    0.0000000000   -0.7572153434   0.5865355237                                
1    0.0000000000    0.7572153434   0.5865355237                                
                                                                                
 THE CHARGE, MULTIPLICITY AND COORDINATES, IF DISPLAYED ABOVE,
 ARE NOT USED, AS THE VALUES FROM THE GAMESS CODE ARE CARRIED
 OVER FOR USE IN VB2000.

 VB2000 SECTION  $MACROITER          IS PRESENT
 VB2000 SECTION  $ECONV              IS PRESENT


 CHECK SHOWS $CONTRL   GROUP SYNTAX IS OK

     ------------------------------------------
     THE POINT GROUP IS C1 , NAXIS= 0, ORDER= 1
     ------------------------------------------

     DIMENSIONS OF THE SYMMETRY SUBSPACES ARE
 A   =   14

 ..... DONE SETTING UP THE RUN .....
 STEP CPU TIME =     0.00 TOTAL CPU TIME =        0.0 (    0.0 MIN)
 TOTAL WALL CLOCK TIME=        0.0 SECONDS, CPU UTILIZATION IS   0.00%

     --------------------------------
     NON-GRADIENT ENERGY MINIMIZATION
     --------------------------------
 CHECK SHOWS $TRURST   GROUP SYNTAX IS OK
 $TRURST KSTART=-1  JSTART= 0  TOLF=  0.000100 TOLR=  0.001000
         FNOISE=  0.000010  FNOT=   0.000000000
 $END
 CHECK SHOWS $TRUDGE   GROUP SYNTAX IS OK
 --------------------------------------------------------------
 INTERNAL COORDINATES (ANGSTROMS/DEGREE)
  I   BOND     ALPHA      BETA    SIGN ICONX   IATCON    INATOM
  1 0.0000000   0.00000   0.00000 -1.0     1200120042003      1
  2 1.0000000   0.00000   0.00000  1.0     2200120042002      2
  3 1.0000000 100.00000   0.00000  1.0     2200120042002      3
 --------------------------------------------------------------
 ----- TRUDGE RESTART DATA AT NSTEP   0 --------
 $TRUDGE OPTMIZ=GEOMETRY  NPAR= 3
         IEX(1)=   21,   31,   32,
         P(1)=      1.000000,      1.000000,    100.000000,
 $END

          ********************
          1 ELECTRON INTEGRALS
          ********************
 ...... END OF ONE-ELECTRON INTEGRALS ......
 STEP CPU TIME =     0.01 TOTAL CPU TIME =        0.0 (    0.0 MIN)
 TOTAL WALL CLOCK TIME=        0.0 SECONDS, CPU UTILIZATION IS  50.00%
 CHECK SHOWS $GUESS    GROUP SYNTAX IS OK

          -------------
          GUESS OPTIONS
          -------------
          GUESS =HUCKEL            NORB  =       0          NORDER=       0
          MIX   =       F          PRTMO =       F          PUNMO =       F
          TOLZ  = 1.0E-08          TOLE  = 1.0E-05
          SYMDEN=       F          PURIFY=       F
 CHECK SHOWS $MOFRZ    GROUP INPUT IS NOT PRESENT

 INITIAL GUESS ORBITALS GENERATED BY HUCKEL   ROUTINE.
 HUCKEL GUESS REQUIRES      3745 WORDS.

 SYMMETRIES FOR INITIAL GUESS ORBITALS FOLLOW.   BOTH SET(S).
     5 ORBITALS ARE OCCUPIED (    1 CORE ORBITALS).
     2=A        3=A        4=A        5=A        6=A        7=A        8=A   
     9=A       10=A       11=A       12=A       13=A       14=A   
 ...... END OF INITIAL ORBITAL SELECTION ......
 STEP CPU TIME =     0.00 TOTAL CPU TIME =        0.0 (    0.0 MIN)
 TOTAL WALL CLOCK TIME=        0.0 SECONDS, CPU UTILIZATION IS  50.00%

                    ----------------------
                    AO INTEGRAL TECHNOLOGY
                    ----------------------
     S,P,L SHELL ROTATED AXIS INTEGRALS, REPROGRAMMED BY
        KAZUYA ISHIMURA (IMS) AND JOSE SIERRA (SYNSTAR).
     S,P,D,L SHELL ROTATED AXIS INTEGRALS PROGRAMMED BY
        KAZUYA ISHIMURA (INSTITUTE FOR MOLECULAR SCIENCE).
     S,P,D,F,G SHELL TO TOTAL QUARTET ANGULAR MOMENTUM SUM 5,
        ERIC PROGRAM BY GRAHAM FLETCHER (ELORET AND NASA ADVANCED
        SUPERCOMPUTING DIVISION, AMES RESEARCH CENTER).
     S,P,D,F,G,L SHELL GENERAL RYS QUADRATURE PROGRAMMED BY
        MICHEL DUPUIS (PACIFIC NORTHWEST NATIONAL LABORATORY).

          --------------------
          2 ELECTRON INTEGRALS
          --------------------

 THE -PK- OPTION IS OFF, THE INTEGRALS ARE NOT IN SUPERMATRIX FORM.
 STORING   15000 INTEGRALS/RECORD ON DISK, USING 12 BYTES/INTEGRAL.
 TWO ELECTRON INTEGRAL EVALUATION REQUIRES   89411 WORDS OF MEMORY.
  ...... END OF TWO-ELECTRON INTEGRALS .....
 STEP CPU TIME =     0.01 TOTAL CPU TIME =        0.0 (    0.0 MIN)
 TOTAL WALL CLOCK TIME=        0.0 SECONDS, CPU UTILIZATION IS 100.00%

          --------------------------
                 RHF SCF CALCULATION
          --------------------------

     NUCLEAR ENERGY =         8.8122319071
     MAXIT =   30     NPUNCH=    2
     EXTRAP=T  DAMP=F  SHIFT=F  RSTRCT=F  DIIS=F  DEM=F  SOSCF=T
     DENSITY MATRIX CONV=  1.00E-05
     SOSCF WILL OPTIMIZE      45 ORBITAL ROTATIONS, SOGTOL=   0.250
     MEMORY REQUIRED FOR RHF ITERS=     31748 WORDS.
 ...... END OF RHF CALCULATION ......
 STEP CPU TIME =     0.00 TOTAL CPU TIME =        0.0 (    0.0 MIN)
 TOTAL WALL CLOCK TIME=        0.0 SECONDS, CPU UTILIZATION IS 100.00%

     ----------------------------------------------------------------
     PROPERTY VALUES FOR THE RHF   SELF-CONSISTENT FIELD WAVEFUNCTION
     ----------------------------------------------------------------

          ---------------------------------------
          MULLIKEN AND LOWDIN POPULATION ANALYSES
          ---------------------------------------

          ---------------------
          ELECTROSTATIC MOMENTS
          ---------------------

 ...... END OF PROPERTY EVALUATION ......
 STEP CPU TIME =     0.00 TOTAL CPU TIME =        0.0 (    0.0 MIN)
 TOTAL WALL CLOCK TIME=        0.0 SECONDS, CPU UTILIZATION IS  66.67%

 **************************************************************
 *                                                            *
 *         ENTERING VB2000 INTERFACED INTO GAMESS(US)         *
 *                                                            *
 **************************************************************

 **************************************************************
 *                                                            *
 *                        V B 2 0 0 0                         *
 *                                                            *
 *       An ab initio Valence-Bond Program Based on the       *
 *           Generalized Product Function Method and          *
 *                   the Algebrant Algorithm                  *
 *                                                            *
 *                   Version 2.7 October 2013                 *
 *                      GAMESS(US) Version                    *
 *                     Compiler: gfortran                     *
 *                                                            *
 *         Jiabo Li*, Brian Duke** and Roy McWeeny***         *
 *                                                            *
 *        * SciNet Technologies, 9943 Fieldthorn St.,         *
 *                   San Diego, CA 92127, USA                 *
 *                                                            *
 *  ** Monash University Institute of Pharmaceutical Sciences,*
 *     381 Royal Pde, Parkville, Victoria, 3052, Australia    *
 *                                                            *
 * *** Department of Chemistry, University of Pisa,           *
 *     56100 Pisa, Italy                                      *
 *                                                            *
 *  Reference for the software:                               *
 *     Jiabo Li, Brian Duke, and Roy McWeeny, VB2000 Version  *
 *     2.7, SciNet Technologies, San Diego, CA, 2013          *
 *     URL: http://www.scinetec.com or http://www.vb2000.net  *
 *                                                            *
 *  References for the theory:                                *
 *     General:                                               *
 *     Jiabo Li, and Roy McWeeny, "VB2000: Pushing Valence    *
 *     Bond Theory to New Limits", Int. J. Quantum Chem.,     *
 *     89(2002)208-216.                                       *
 *                                                            *
 *     Spin densities:-                                       *
 *     Jiabo Li, Brian J. Duke, Thomas M. Klapoetke, and Roy  *
 *     McWeeny, Spin-Density of Spin-Free Valence Bond Wave   *
 *     Functions and Its Implementation in VB2000. J. Theor.  *
 *     Comp. Chem. 7(2008)853-867.                            *
 *                                                            *
 *     Spin coupled - n electrons in m orbitals:-             *
 *     Peter B. Karadakov, David L. Cooper, Brian J. Duke,    *
 *     and Jiabo Li, Spin-Coupled Theory for N Electrons in   *
 *     M Orbitals Active Spaces,  J. Phys. Chem. A, 116,      *
 *     7238 - 7244, 2012                                      *
 *                                                            *
 *  Copyright (C) 2000-2013 by SciNet Technologies            *
 **************************************************************

 JOB NAME IS exam-vb09                                                       

 THIS IS A RUNTYP=CHECK RUN

 VB2000 DIRECTORY IS: /home/brian/qchem/gamess/vb2000                                                 
 MAXIMUM MEMORY USE IS:     6500000
 THIS IS TAKEN AS THE MAXIMUM OF THE UNUSED MEMORY REQUESTED
 IN GAMESS $SYSTEM BLOCK AND MEMORY REQUESTED IN VB2000 DATA

 Input of molecule
 =================
 #! VB(4)/D95 PRINTALL                                                           
                                                                                 
 Title: Water                                                                           
        Line 2 test                                                                     


 MACROITERATION CONVERGENCE TOLERANCE TIGHTENED
 TO 10.00**(-7) FOR GEOMETRY OPTIMIZATION.

 Charge =  0 Multiplicity =  1

 ATOM      ATOMIC                      COORDINATES (ANGS)
           CHARGE         X                   Y                   Z
 O           8.0     0.0000000000        0.0000000000        0.0000000000
 H           1.0     0.0000000000        0.0000000000        0.9999999995
 H           1.0     0.9848077526        0.0000000000       -0.1736481776

 Hartree-Fock Energy from Gamess run =       0.000000000000

 Basis set size =   14

                    PARAMETER LIMIT VALUES
 Max. no. of atoms                    MAXCEN =   200
 Max. no. of basis functions          MAXBFN =   726
 Max. no. of shells                   MAXSHL =   500
 Max. no. of total primitives         MAXEXP =  1000
 Max. no. of primitives per orbital   MAXPRM =    15
 Max. no. of atoms * no. of orbitals  MAXNAB = 72600
 Increase max basis set size by       NEXTRA =    20
 Max. size for Rumer data             MAXST1 = 33334
 Max. no. of orbitals in group        MAXNOB =   200
 Max. no. of CUBE orbitals            MAXCUB =   100
 Max. no. of groups                   MAXGRP =    99

 BASIS FROM #! LINE = D95                 

 VBO LIB IS: /home/brian/qchem/gamess/vb2000/VBOLIB/VBOLIBD95                                
 IS BASIS D95 CORRECTLY DEFINED IN $DATA GROUP?

 PARTITIONING OF LMOs INTO GROUPS ($LMOGRP)
 =======================================================================
 LMO#     1  2  3  4  5
 Group#   1  1  1  2  2
 Split    0  0  0  1  1




      GENERAL CONTROLS ($GENCTL)
 ====================================
 Number of electron groups       =    2
 Maximum macro-iterations        =   20
 Energy threshold           = 10**(- 7)
 Restart calculation(0/1/2)      =    0
 Group#                     1  2
 Num. of electrons          6  4
 Num. of spins              0  0
 Num. of orbitals           3  4
 Method#                    1  2


 MEMORY NEEDED:        5334
 MEMORY ALLOCATED:  6500000

 STEP CPU TIME =     0.06 TOTAL CPU TIME =        0.1 (    0.0 MIN)
 TOTAL WALL CLOCK TIME=        0.1 SECONDS, CPU UTILIZATION IS  88.89%

 **************************************************************
 *                                                            *
 *                  ENDING GAMESS(US) VB2000                  *
 *                                                            *
 *  Properties for individual molecular orbitals are correct  *
 *   only for VB modified orbitals in a Hartree-Fock group.   *
 *                                                            *
 **************************************************************

     ----------------------------------
     PROPERTIES FOR THE VB WAVEFUNCTION
     ----------------------------------

          ---------------------------------------
          MULLIKEN AND LOWDIN POPULATION ANALYSES
          ---------------------------------------

          ---------------------
          ELECTROSTATIC MOMENTS
          ---------------------

 ...... END OF PROPERTY EVALUATION ......
 STEP CPU TIME =     0.00 TOTAL CPU TIME =        0.1 (    0.0 MIN)
 TOTAL WALL CLOCK TIME=        0.1 SECONDS, CPU UTILIZATION IS  88.89%

 TRUDGE ENERGY VALUE AT NSTEP=   0 IS        0.0000000000
 --------------------------------------------------------------
 INTERNAL COORDINATES (ANGSTROMS/DEGREE)
  I   BOND     ALPHA      BETA    SIGN ICONX   IATCON    INATOM
  1 0.0000000   0.00000   0.00000 -1.0     1200120042003      1
  2 1.0000000   0.00000   0.00000  1.0     2200120042002      2
  3 1.0000000 100.00000   0.00000  1.0     2200120042002      3
 --------------------------------------------------------------
 COORDINATES OF ALL ATOMS ARE (ANGS)
   ATOM   CHARGE       X              Y              Z
 ------------------------------------------------------------
 O           8.0   0.0000000000   0.0000000000   0.0000000000
 H           1.0   0.0000000000   0.0000000000   1.0000000000
 H           1.0   0.9848077530   0.0000000000  -0.1736481777

          INTERNUCLEAR DISTANCES (ANGS.)
          ------------------------------

                1 O          2 H          3 H     

   1 O       0.0000000    1.0000000 *  1.0000000 *
   2 H       1.0000000 *  0.0000000    1.5320889 *
   3 H       1.0000000 *  1.5320889 *  0.0000000  

  * ... LESS THAN  3.000

 ...... END OF NON-GRADIENT ENERGY MINIMIZATION ......
 STEP CPU TIME =     0.00 TOTAL CPU TIME =        0.1 (    0.0 MIN)
 TOTAL WALL CLOCK TIME=        0.1 SECONDS, CPU UTILIZATION IS  88.89%
 CHECK SHOWS $TRUNCN   GROUP INPUT IS NOT PRESENT
               580000  WORDS OF DYNAMIC MEMORY USED
 EXECUTION OF GAMESS TERMINATED NORMALLY Mon Oct 14 07:28:29 2013
 DDI: 263624 bytes (0.3 MB / 0 MWords) used by master data server.

 ----------------------------------------
 CPU timing information for all processes
 ========================================
 0: 0.80 + 0.08 = 0.88
 ----------------------------------------
 ddikick.x: exited gracefully.
unset echo
----- accounting info -----
Files used on the master node titch-64 were:
-rw-r--r-- 1 brian brian    2254 Oct 14 07:28 /scr/brian/exam-vb09.F05
-rw-rw-r-- 1 brian brian       0 Oct 14 07:28 /scr/brian/exam-vb09.F08
-rw-rw-r-- 1 brian brian 1210640 Oct 14 07:28 /scr/brian/exam-vb09.F10
-rw-rw-r-- 1 brian brian   32912 Aug 22 16:51 /scr/brian/exam-vb09.TEMP-MOD
-rw-rw-r-- 1 brian brian    1296 Oct 14 07:28 /scr/brian/exam-vb09.V80
-rw-rw-r-- 1 brian brian       0 Oct 14 07:28 /scr/brian/exam-vb09.V82
-rw-rw-r-- 1 brian brian       0 Oct 14 07:28 /scr/brian/exam-vb09.V83
-rw-rw-r-- 1 brian brian       0 Oct 14 07:28 /scr/brian/exam-vb09.V84
-rw-rw-r-- 1 brian brian       0 Oct 14 07:28 /scr/brian/exam-vb09.V85
-rw-rw-r-- 1 brian brian       0 Oct 14 07:28 /scr/brian/exam-vb09.V86
-rw-rw-r-- 1 brian brian       0 Oct 14 07:28 /scr/brian/exam-vb09.V87
-rw-rw-r-- 1 brian brian       0 Oct 14 07:28 /scr/brian/exam-vb09.V89
ls: No match.
ls: No match.
ls: No match.
Mon Oct 14 07:28:32 EST 2013
0.064u 0.020s 0:03.21 2.4%	0+0k 8+16io 0pf+0w
