----- GAMESS execution script 'rungms' -----
This job is running on host titch-64
under operating system Linux at Mon Oct 14 07:27:02 EST 2013
Available scratch disk space (Kbyte units) at beginning of the job is
Filesystem     1K-blocks      Used Available Use% Mounted on
/dev/sda1      945022356 138258792 758759212  16% /
GAMESS temporary binary files will be written to /scr/brian
GAMESS supplementary output files will be written to /home/brian/scr
Copying input file exam-vb04.inp to your run's scratch directory...
cp tests/exam-vb04.inp /scr/brian/exam-vb04.F05
unset echo
/home/brian/qchem/gamess/ddikick.x /home/brian/qchem/gamess/gamess.01.x exam-vb04 -ddi 1 1 titch-64 -scr /scr/brian

 Distributed Data Interface kickoff program.
 Initiating 1 compute processes on 1 nodes to run the following command:
 /home/brian/qchem/gamess/gamess.01.x exam-vb04 

          ******************************************************
          *         GAMESS VERSION =  1 MAY 2013 (R1)          *
          *             FROM IOWA STATE UNIVERSITY             *
          * M.W.SCHMIDT, K.K.BALDRIDGE, J.A.BOATZ, S.T.ELBERT, *
          *   M.S.GORDON, J.H.JENSEN, S.KOSEKI, N.MATSUNAGA,   *
          *          K.A.NGUYEN, S.J.SU, T.L.WINDUS,           *
          *       TOGETHER WITH M.DUPUIS, J.A.MONTGOMERY       *
          *         J.COMPUT.CHEM.  14, 1347-1363(1993)        *
          **************** 64 BIT LINUX VERSION ****************

  SINCE 1993, STUDENTS AND POSTDOCS WORKING AT IOWA STATE UNIVERSITY
  AND ALSO IN THEIR VARIOUS JOBS AFTER LEAVING ISU HAVE MADE IMPORTANT
  CONTRIBUTIONS TO THE CODE:
     IVANA ADAMOVIC, CHRISTINE AIKENS, YURI ALEXEEV, POOJA ARORA,
     ANDREY ASADCHEV, ROB BELL, PRADIPTA BANDYOPADHYAY, JONATHAN BENTZ,
     BRETT BODE, GALINA CHABAN, WEI CHEN, CHEOL HO CHOI, PAUL DAY,
     ALBERT DEFUSCO, TIM DUDLEY, DMITRI FEDOROV, GRAHAM FLETCHER,
     MARK FREITAG, KURT GLAESEMANN, DAN KEMP, GRANT MERRILL,
     NORIYUKI MINEZAWA, JONATHAN MULLIN, TAKESHI NAGATA,
     SEAN NEDD, HEATHER NETZLOFF, BOSILJKA NJEGIC, RYAN OLSON, MIKE PAK,
     JIM SHOEMAKER, LYUDMILA SLIPCHENKO, SAROM SOK, JIE SONG,
     TETSUYA TAKETSUGU, SIMON WEBB, SOOHAENG YOO, FEDERICO ZAHARIEV

  ADDITIONAL CODE HAS BEEN PROVIDED BY COLLABORATORS IN OTHER GROUPS:
     IOWA STATE UNIVERSITY:
          JOE IVANIC, LAIMUTIS BYTAUTAS, KLAUS RUEDENBERG
     UNIVERSITY OF TOKYO: KIMIHIKO HIRAO, TAKAHITO NAKAJIMA,
          TAKAO TSUNEDA, MUNEAKI KAMIYA, SUSUMU YANAGISAWA,
          KIYOSHI YAGI, MAHITO CHIBA, SEIKEN TOKURA, NAOAKI KAWAKAMI
     UNIVERSITY OF AARHUS: FRANK JENSEN
     UNIVERSITY OF IOWA: VISVALDAS KAIRYS, HUI LI
     NATIONAL INST. OF STANDARDS AND TECHNOLOGY: WALT STEVENS, DAVID GARMER
     UNIVERSITY OF PISA: BENEDETTA MENNUCCI, JACOPO TOMASI
     UNIVERSITY OF MEMPHIS: HENRY KURTZ, PRAKASHAN KORAMBATH
     UNIVERSITY OF ALBERTA: TOBY ZENG, MARIUSZ KLOBUKOWSKI
     UNIVERSITY OF NEW ENGLAND: MARK SPACKMAN
     MIE UNIVERSITY: HIROAKI UMEDA
     MICHIGAN STATE UNIVERSITY:
          KAROL KOWALSKI, MARTA WLOCH, JEFFREY GOUR, JESSE LUTZ,
          WEI LI, PIOTR PIECUCH
     UNIVERSITY OF SILESIA: MONIKA MUSIAL, STANISLAW KUCHARSKI
     FACULTES UNIVERSITAIRES NOTRE-DAME DE LA PAIX:
          OLIVIER QUINET, BENOIT CHAMPAGNE
     UNIVERSITY OF CALIFORNIA - SANTA BARBARA: BERNARD KIRTMAN
     INSTITUTE FOR MOLECULAR SCIENCE:
          KAZUYA ISHIMURA, MICHIO KATOUDA, AND SHIGERU NAGASE
     UNIVERSITY OF NOTRE DAME: DAN CHIPMAN
     KYUSHU UNIVERSITY:
          HARUYUKI NAKANO,
          FENG LONG GU, JACEK KORCHOWIEC, MARCIN MAKOWSKI, AND YURIKO AOKI,
          HIROTOSHI MORI AND EISAKU MIYOSHI
     PENNSYLVANIA STATE UNIVERSITY:
          TZVETELIN IORDANOV, CHET SWALINA, JONATHAN SKONE,
          SHARON HAMMES-SCHIFFER
     WASEDA UNIVERSITY:
          MASATO KOBAYASHI, TOMOKO AKAMA, TSUGUKI TOUMA,
          TAKESHI YOSHIKAWA, YASUHIRO IKABATA, HIROMI NAKAI
     NANJING UNIVERSITY: SHUHUA LI
     UNIVERSITY OF NEBRASKA:
          PEIFENG SU, DEJUN SI, NANDUN THELLAMUREGE, YALI WANG, HUI LI
     UNIVERSITY OF ZURICH:
          ROBERTO PEVERATI, KIM BALDRIDGE
     N. COPERNICUS UNIVERSITY AND JACKSON STATE UNIVERSITY:
          MARIA BARYSZ

 EXECUTION OF GAMESS BEGUN Mon Oct 14 07:27:02 2013

            ECHO OF THE FIRST FEW INPUT CARDS -
 INPUT CARD>! GAMESS/VB2000 Test 4.                                                         
 INPUT CARD>! This run is the same as test 3, but illustrates how symmetry                  
 INPUT CARD>! can be used to define the data and then switched off. The VB2000              
 INPUT CARD>! output is minimised in this case by removing PRINTALL from the                
 INPUT CARD>! VB command line. It also illustrates the visualisation directives,            
 INPUT CARD>! $MOLEKEL, $XYZFILE and $GENGRID.                                              
 INPUT CARD>!                                                                               
 INPUT CARD>!                                                                               
 INPUT CARD>! The final RHF energy is:-                                                     
 INPUT CARD>!                                                                               
 INPUT CARD>!  RHF ENERGY IS -74.9630286444 AFTER  11 ITERATIONS                            
 INPUT CARD>!                                                                               
 INPUT CARD>! The VB final energy is:-                                                      
 INPUT CARD>!                                                                               
 INPUT CARD>! ENERGY AND DIFF OF MACROITER   10 =    -75.00340212     -0.00000048           
 INPUT CARD>!                                                                               
 INPUT CARD>! and the VB and HF dipole moments are 1.6369 and 1.7253 respectively.          
 INPUT CARD>!                                                                               
 INPUT CARD>! GENGRID uses 40 points, which is less than optimal, particularly              
 INPUT CARD>! for the core orbital, which would be rarely included in GENGRID               
 INPUT CARD>! data. You might like to raise the number of grid point in each                
 INPUT CARD>! direction from 40 to a more realistic 80 or 100.                              
 INPUT CARD>!                                                                               
 INPUT CARD> $CONTRL SCFTYP=RHF COORD=UNIQUE VBTYP=VB2000                                   
 INPUT CARD>   RUNTYP=ENERGY NOSYM=1 $END                                                   
 INPUT CARD> $SYSTEM TIMLIM=20 MEMORY=2000000 $END                                          
 INPUT CARD> $BASIS GBASIS=STO NGAUSS=3 $END                                                
 INPUT CARD> $GUESS  GUESS=HUCKEL $END                                                      
 INPUT CARD> $DATA                                                                          
 INPUT CARD>Water STO-3G                                                                    
 INPUT CARD>Cnv   2                                                                         
 INPUT CARD>                                                                                
 INPUT CARD>OXYGEN    8.0    0.0000000000    0.0000000000   0.0000000000                    
 INPUT CARD>HYDROGEN  1.0    0.0000000000   -0.7572153434   0.5865355237                    
 INPUT CARD> $END                                                                           
 INPUT CARD> $VB2000                                                                        
 INPUT CARD>#! VB(4)/STO-3G                                                                 
 INPUT CARD>                                                                                
 INPUT CARD>Water                                                                           
 INPUT CARD>                                                                                
 INPUT CARD>0 1                                                                             
 INPUT CARD>8    0.0000000000    0.0000000000   0.0000000000                                
 INPUT CARD>1    0.0000000000   -0.7572153434   0.5865355237                                
 INPUT CARD>1    0.0000000000    0.7572153434   0.5865355237                                
 INPUT CARD>                                                                                
 INPUT CARD> $02VBORB                                                                       
 INPUT CARD> 1-2                                                                            
 INPUT CARD> 1-3                                                                            
 INPUT CARD>                                                                                
 INPUT CARD> $MOLEKEL                                                                       
    2000000 WORDS OF MEMORY AVAILABLE

     BASIS OPTIONS
     -------------
     GBASIS=STO          IGAUSS=       3      POLAR=NONE    
     NDFUNC=       0     NFFUNC=       0     DIFFSP=       F
     NPFUNC=       0      DIFFS=       F     BASNAM=        


     RUN TITLE
     ---------
 Water STO-3G                                                                    

 THE POINT GROUP OF THE MOLECULE IS CNV     
 THE ORDER OF THE PRINCIPAL AXIS IS     2

 ATOM      ATOMIC                      COORDINATES (BOHR)
           CHARGE         X                   Y                   Z
 OXYGEN      8.0     0.0000000000        0.0000000000        0.0000000000
 HYDROGEN    1.0     0.0000000000        1.4309295127        1.1083914219
 HYDROGEN    1.0     0.0000000000       -1.4309295127        1.1083914219

          INTERNUCLEAR DISTANCES (ANGS.)
          ------------------------------

                1 OXYG       2 HYDR       3 HYDR  

   1 OXYG    0.0000000    0.9578095 *  0.9578095 *
   2 HYDR    0.9578095 *  0.0000000    1.5144307 *
   3 HYDR    0.9578095 *  1.5144307 *  0.0000000  

  * ... LESS THAN  3.000


     ATOMIC BASIS SET
     ----------------
 THE CONTRACTED PRIMITIVE FUNCTIONS HAVE BEEN UNNORMALIZED
 THE CONTRACTED BASIS FUNCTIONS ARE NOW NORMALIZED TO UNITY

  SHELL TYPE  PRIMITIVE        EXPONENT          CONTRACTION COEFFICIENT(S)

 OXYGEN    

      1   S       1           130.7093214    0.154328967295
      1   S       2            23.8088661    0.535328142282
      1   S       3             6.4436083    0.444634542185

      2   L       4             5.0331513   -0.099967229187    0.155916274999
      2   L       5             1.1695961    0.399512826089    0.607683718598
      2   L       6             0.3803890    0.700115468880    0.391957393099

 HYDROGEN  

      4   S       7             3.4252509    0.154328967295
      4   S       8             0.6239137    0.535328142282
      4   S       9             0.1688554    0.444634542185

 TOTAL NUMBER OF BASIS SET SHELLS             =    4
 NUMBER OF CARTESIAN GAUSSIAN BASIS FUNCTIONS =    7
 NUMBER OF ELECTRONS                          =   10
 CHARGE OF MOLECULE                           =    0
 SPIN MULTIPLICITY                            =    1
 NUMBER OF OCCUPIED ORBITALS (ALPHA)          =    5
 NUMBER OF OCCUPIED ORBITALS (BETA )          =    5
 TOTAL NUMBER OF ATOMS                        =    3
 THE NUCLEAR REPULSION ENERGY IS        9.1892146195

     $CONTRL OPTIONS
     ---------------
 SCFTYP=RHF          RUNTYP=ENERGY       EXETYP=RUN     
 MPLEVL=       0     CITYP =NONE         CCTYP =NONE         VBTYP =VB2000  
 DFTTYP=NONE         TDDFT =NONE    
 MULT  =       1     ICHARG=       0     NZVAR =       0     COORD =UNIQUE  
 PP    =NONE         RELWFN=NONE         LOCAL =NONE         NUMGRD=       F
 ISPHER=      -1     NOSYM =       1     MAXIT =      30     UNITS =ANGS    
 PLTORB=       F     MOLPLT=       F     AIMPAC=       F     FRIEND=        
 NPRINT=       7     IREST =       0     GEOM  =INPUT   
 NORMF =       0     NORMP =       0     ITOL  =      20     ICUT  =       9
 INTTYP=BEST         GRDTYP=BEST         QMTTOL= 1.0E-06

     $SYSTEM OPTIONS
     ---------------
  REPLICATED MEMORY=     2000000 WORDS (ON EVERY NODE).
 DISTRIBUTED MEMDDI=           0 MILLION WORDS IN AGGREGATE,
 MEMDDI DISTRIBUTED OVER   1 PROCESSORS IS           0 WORDS/PROCESSOR.
 TOTAL MEMORY REQUESTED ON EACH PROCESSOR=     2000000 WORDS.
 TIMLIM=          20.00 MINUTES, OR       0.0 DAYS.
 PARALL= F  BALTYP=  DLB     KDIAG=    0  COREFL= F
 MXSEQ2=     300 MXSEQ3=     150

          ----------------
          PROPERTIES INPUT
          ----------------

     MOMENTS            FIELD           POTENTIAL          DENSITY
 IEMOM =       1   IEFLD =       0   IEPOT =       0   IEDEN =       0
 WHERE =COMASS     WHERE =NUCLEI     WHERE =NUCLEI     WHERE =NUCLEI  
 OUTPUT=BOTH       OUTPUT=BOTH       OUTPUT=BOTH       OUTPUT=BOTH    
 IEMINT=       0   IEFINT=       0                     IEDINT=       0
                                                       MORB  =       0
          EXTRAPOLATION IN EFFECT
 ORBITAL PRINTING OPTION: NPREO=     1     7     2     1

     -------------------------------
     INTEGRAL TRANSFORMATION OPTIONS
     -------------------------------
     NWORD  =            0
     CUTOFF = 1.0E-09     MPTRAN =       0
     DIRTRF =       F     AOINTS =DUP     

          ----------------------
          INTEGRAL INPUT OPTIONS
          ----------------------
 NOPK  =       1 NORDER=       0 SCHWRZ=       F

     ------------------------------------------
     THE POINT GROUP IS C1 , NAXIS= 1, ORDER= 1
     ------------------------------------------

     DIMENSIONS OF THE SYMMETRY SUBSPACES ARE
 A   =    7

 ..... DONE SETTING UP THE RUN .....
 STEP CPU TIME =     0.00 TOTAL CPU TIME =        0.0 (    0.0 MIN)
 TOTAL WALL CLOCK TIME=        0.0 SECONDS, CPU UTILIZATION IS   0.00%

          ********************
          1 ELECTRON INTEGRALS
          ********************
 ...... END OF ONE-ELECTRON INTEGRALS ......
 STEP CPU TIME =     0.00 TOTAL CPU TIME =        0.0 (    0.0 MIN)
 TOTAL WALL CLOCK TIME=        0.0 SECONDS, CPU UTILIZATION IS   0.00%

          -------------
          GUESS OPTIONS
          -------------
          GUESS =HUCKEL            NORB  =       0          NORDER=       0
          MIX   =       F          PRTMO =       F          PUNMO =       F
          TOLZ  = 1.0E-08          TOLE  = 1.0E-05
          SYMDEN=       F          PURIFY=       F

 INITIAL GUESS ORBITALS GENERATED BY HUCKEL   ROUTINE.
 HUCKEL GUESS REQUIRES      2569 WORDS.

 SYMMETRIES FOR INITIAL GUESS ORBITALS FOLLOW.   BOTH SET(S).
     5 ORBITALS ARE OCCUPIED (    1 CORE ORBITALS).
     2=A        3=A        4=A        5=A        6=A        7=A   
 ...... END OF INITIAL ORBITAL SELECTION ......
 STEP CPU TIME =     0.00 TOTAL CPU TIME =        0.0 (    0.0 MIN)
 TOTAL WALL CLOCK TIME=        0.0 SECONDS, CPU UTILIZATION IS   0.00%

                    ----------------------
                    AO INTEGRAL TECHNOLOGY
                    ----------------------
     S,P,L SHELL ROTATED AXIS INTEGRALS, REPROGRAMMED BY
        KAZUYA ISHIMURA (IMS) AND JOSE SIERRA (SYNSTAR).
     S,P,D,L SHELL ROTATED AXIS INTEGRALS PROGRAMMED BY
        KAZUYA ISHIMURA (INSTITUTE FOR MOLECULAR SCIENCE).
     S,P,D,F,G SHELL TO TOTAL QUARTET ANGULAR MOMENTUM SUM 5,
        ERIC PROGRAM BY GRAHAM FLETCHER (ELORET AND NASA ADVANCED
        SUPERCOMPUTING DIVISION, AMES RESEARCH CENTER).
     S,P,D,F,G,L SHELL GENERAL RYS QUADRATURE PROGRAMMED BY
        MICHEL DUPUIS (PACIFIC NORTHWEST NATIONAL LABORATORY).

          --------------------
          2 ELECTRON INTEGRALS
          --------------------

 THE -PK- OPTION IS OFF, THE INTEGRALS ARE NOT IN SUPERMATRIX FORM.
 STORING   15000 INTEGRALS/RECORD ON DISK, USING 12 BYTES/INTEGRAL.
 TWO ELECTRON INTEGRAL EVALUATION REQUIRES   89366 WORDS OF MEMORY.
 II,JST,KST,LST =  1  1  1  1 NREC =         1 INTLOC =    1
 II,JST,KST,LST =  2  1  1  1 NREC =         1 INTLOC =    2
 II,JST,KST,LST =  3  1  1  1 NREC =         1 INTLOC =   34
 II,JST,KST,LST =  4  1  1  1 NREC =         1 INTLOC =  109
 TOTAL NUMBER OF NONZERO TWO-ELECTRON INTEGRALS =                 228
          1 INTEGRAL RECORDS WERE STORED ON DISK FILE  8.
  ...... END OF TWO-ELECTRON INTEGRALS .....
 STEP CPU TIME =     0.02 TOTAL CPU TIME =        0.0 (    0.0 MIN)
 TOTAL WALL CLOCK TIME=        0.0 SECONDS, CPU UTILIZATION IS 100.00%

          --------------------------
                 RHF SCF CALCULATION
          --------------------------

     NUCLEAR ENERGY =         9.1892146195
     MAXIT =   30     NPUNCH=    2
     EXTRAP=T  DAMP=F  SHIFT=F  RSTRCT=F  DIIS=F  DEM=F  SOSCF=F
     DENSITY MATRIX CONV=  1.00E-05
     MEMORY REQUIRED FOR RHF ITERS=     30441 WORDS.

 ITER EX DEM     TOTAL ENERGY        E CHANGE  DENSITY CHANGE    DIIS ERROR
   1  0  0      -74.7971658034   -74.7971658034   0.600125587   0.000000000
   2  1  0      -74.9496032744    -0.1524374710   0.182106101   0.000000000
   3  2  0      -74.9615728174    -0.0119695430   0.059940932   0.000000000
   4  3  0      -74.9628229606    -0.0012501432   0.020350363   0.000000000
   5  0  0      -74.9629942716    -0.0001713110   0.021682075   0.000000000
   6  1  0      -74.9629973083    -0.0000030367   0.005612289   0.000000000
   7  2  0      -74.9630227577    -0.0000254494   0.002505909   0.000000000
   8  3  0      -74.9630275378    -0.0000047801   0.001082459   0.000000000
   9  0  0      -74.9630284364    -0.0000008986   0.000828337   0.000000000
  10  1  0      -74.9630286444    -0.0000002080   0.000001489   0.000000000
  11  2  0      -74.9630286444    -0.0000000000   0.000000486   0.000000000

          -----------------
          DENSITY CONVERGED
          -----------------
     TIME TO FORM FOCK OPERATORS=       0.0 SECONDS (       0.0 SEC/ITER)
     TIME TO SOLVE SCF EQUATIONS=       0.0 SECONDS (       0.0 SEC/ITER)

 FINAL RHF ENERGY IS      -74.9630286444 AFTER  11 ITERATIONS

          ------------
          EIGENVECTORS
          ------------

                      1          2          3          4          5
                  -20.2419    -1.2681    -0.6175    -0.4530    -0.3912
                     A          A          A          A          A   
    1  O  1  S    0.994131  -0.232806  -0.000000   0.103172  -0.000000
    2  O  1  S    0.026549   0.833706  -0.000000  -0.536794  -0.000000
    3  O  1  X   -0.000000  -0.000000  -0.000000  -0.000000   1.000000
    4  O  1  Y   -0.000000  -0.000000   0.606480  -0.000000  -0.000000
    5  O  1  Z    0.004342   0.129432  -0.000000   0.776477  -0.000000
    6  H  2  S   -0.005965   0.158673   0.445066   0.278119  -0.000000
    7  H  3  S   -0.005965   0.158673  -0.445066   0.278119  -0.000000

                      6          7
                    0.6051     0.7416
                     A          A   
    1  O  1  S   -0.132286  -0.000000
    2  O  1  S    0.883597  -0.000000
    3  O  1  X    0.000000  -0.000000
    4  O  1  Y    0.000000   0.990128
    5  O  1  Z    0.742510  -0.000000
    6  H  2  S   -0.796671  -0.838170
    7  H  3  S   -0.796671   0.838170
 ...... END OF RHF CALCULATION ......
 STEP CPU TIME =     0.00 TOTAL CPU TIME =        0.0 (    0.0 MIN)
 TOTAL WALL CLOCK TIME=        0.0 SECONDS, CPU UTILIZATION IS  66.67%

     ----------------------------------------------------------------
     PROPERTY VALUES FOR THE RHF   SELF-CONSISTENT FIELD WAVEFUNCTION
     ----------------------------------------------------------------

          -----------------
          ENERGY COMPONENTS
          -----------------

         WAVEFUNCTION NORMALIZATION =       1.0000000000

                ONE ELECTRON ENERGY =    -122.3608474293
                TWO ELECTRON ENERGY =      38.2086041654
           NUCLEAR REPULSION ENERGY =       9.1892146195
                                      ------------------
                       TOTAL ENERGY =     -74.9630286444

 ELECTRON-ELECTRON POTENTIAL ENERGY =      38.2086041654
  NUCLEUS-ELECTRON POTENTIAL ENERGY =    -196.9483338170
   NUCLEUS-NUCLEUS POTENTIAL ENERGY =       9.1892146195
                                      ------------------
             TOTAL POTENTIAL ENERGY =    -149.5505150321
               TOTAL KINETIC ENERGY =      74.5874863877
                 VIRIAL RATIO (V/T) =       2.0050349231

  ...... PI ENERGY ANALYSIS ......

 ENERGY ANALYSIS:
            FOCK ENERGY=    -45.9436391437
          BARE H ENERGY=   -122.3608474293
     ELECTRONIC ENERGY =    -84.1522432865
         KINETIC ENERGY=     74.5874863877
          N-N REPULSION=      9.1892146195
           TOTAL ENERGY=    -74.9630286670
        SIGMA PART(1+2)=    -76.3038658202
               (K,V1,2)=     69.5300239357   -176.9765889685     31.1426992126
           PI PART(1+2)=     -7.8483774663
               (K,V1,2)=      5.0574624520    -19.9717448485      7.0659049301
  SIGMA SKELETON, ERROR=    -67.1146512007      0.0000000000
             MIXED PART= 0.00000E+00 0.00000E+00 0.00000E+00 0.00000E+00
 ...... END OF PI ENERGY ANALYSIS ......

          ---------------------------------------
          MULLIKEN AND LOWDIN POPULATION ANALYSES
          ---------------------------------------

     ATOMIC MULLIKEN POPULATION IN EACH MOLECULAR ORBITAL

                      1          2          3          4          5

                  2.000000   2.000000   2.000000   2.000000   2.000000

    1             2.001426   1.611113   1.071296   1.681879   2.000000
    2            -0.000713   0.194444   0.464352   0.159061   0.000000
    3            -0.000713   0.194444   0.464352   0.159061   0.000000

               ----- POPULATIONS IN EACH AO -----
                             MULLIKEN      LOWDIN
              1  O  1  S      1.99761     1.99602
              2  O  1  S      1.82966     1.67607
              3  O  1  X      2.00000     2.00000
              4  O  1  Y      1.07130     1.10075
              5  O  1  Z      1.46715     1.48017
              6  H  2  S      0.81714     0.87350
              7  H  3  S      0.81714     0.87350

          ----- MULLIKEN ATOMIC OVERLAP POPULATIONS -----
          (OFF-DIAGONAL ELEMENTS NEED TO BE MULTIPLIED BY 2)

             1           2           3

    1    7.8379108
    2    0.2639012   0.6012941
    3    0.2639012  -0.0480520   0.6012941

          TOTAL MULLIKEN AND LOWDIN ATOMIC POPULATIONS
       ATOM         MULL.POP.    CHARGE          LOW.POP.     CHARGE
    1 OXYGEN        8.365713   -0.365713         8.253001   -0.253001
    2 HYDROGEN      0.817143    0.182857         0.873500    0.126500
    3 HYDROGEN      0.817143    0.182857         0.873500    0.126500

          -------------------------------
          BOND ORDER AND VALENCE ANALYSIS     BOND ORDER THRESHOLD=0.050
          -------------------------------

                   BOND                       BOND                       BOND
  ATOM PAIR DIST  ORDER      ATOM PAIR DIST  ORDER      ATOM PAIR DIST  ORDER
    1   2  0.958  0.954        1   3  0.958  0.954

                       TOTAL       BONDED        FREE
      ATOM            VALENCE     VALENCE     VALENCE
    1 OXYGEN            1.908       1.908       0.000
    2 HYDROGEN          0.967       0.967       0.000
    3 HYDROGEN          0.967       0.967       0.000

          ---------------------
          ELECTROSTATIC MOMENTS
          ---------------------

 POINT   1           X           Y           Z (BOHR)    CHARGE
                 0.000000    0.000000    0.124046       -0.00 (A.U.)
         DX          DY          DZ         /D/  (DEBYE)
     0.000000    0.000000    1.725288    1.725288
 ...... END OF PROPERTY EVALUATION ......
 STEP CPU TIME =     0.00 TOTAL CPU TIME =        0.0 (    0.0 MIN)
 TOTAL WALL CLOCK TIME=        0.0 SECONDS, CPU UTILIZATION IS  66.67%

 **************************************************************
 *                                                            *
 *         ENTERING VB2000 INTERFACED INTO GAMESS(US)         *
 *                                                            *
 **************************************************************

 **************************************************************
 *                                                            *
 *                        V B 2 0 0 0                         *
 *                                                            *
 *       An ab initio Valence-Bond Program Based on the       *
 *           Generalized Product Function Method and          *
 *                   the Algebrant Algorithm                  *
 *                                                            *
 *                   Version 2.7 October 2013                 *
 *                      GAMESS(US) Version                    *
 *                     Compiler: gfortran                     *
 *                                                            *
 *         Jiabo Li*, Brian Duke** and Roy McWeeny***         *
 *                                                            *
 *        * SciNet Technologies, 9943 Fieldthorn St.,         *
 *                   San Diego, CA 92127, USA                 *
 *                                                            *
 *  ** Monash University Institute of Pharmaceutical Sciences,*
 *     381 Royal Pde, Parkville, Victoria, 3052, Australia    *
 *                                                            *
 * *** Department of Chemistry, University of Pisa,           *
 *     56100 Pisa, Italy                                      *
 *                                                            *
 *  Reference for the software:                               *
 *     Jiabo Li, Brian Duke, and Roy McWeeny, VB2000 Version  *
 *     2.7, SciNet Technologies, San Diego, CA, 2013          *
 *     URL: http://www.scinetec.com or http://www.vb2000.net  *
 *                                                            *
 *  References for the theory:                                *
 *     General:                                               *
 *     Jiabo Li, and Roy McWeeny, "VB2000: Pushing Valence    *
 *     Bond Theory to New Limits", Int. J. Quantum Chem.,     *
 *     89(2002)208-216.                                       *
 *                                                            *
 *     Spin densities:-                                       *
 *     Jiabo Li, Brian J. Duke, Thomas M. Klapoetke, and Roy  *
 *     McWeeny, Spin-Density of Spin-Free Valence Bond Wave   *
 *     Functions and Its Implementation in VB2000. J. Theor.  *
 *     Comp. Chem. 7(2008)853-867.                            *
 *                                                            *
 *     Spin coupled - n electrons in m orbitals:-             *
 *     Peter B. Karadakov, David L. Cooper, Brian J. Duke,    *
 *     and Jiabo Li, Spin-Coupled Theory for N Electrons in   *
 *     M Orbitals Active Spaces,  J. Phys. Chem. A, 116,      *
 *     7238 - 7244, 2012                                      *
 *                                                            *
 *  Copyright (C) 2000-2013 by SciNet Technologies            *
 **************************************************************

 JOB NAME IS exam-vb04                                                       

 VB2000 DIRECTORY IS: /home/brian/qchem/gamess/vb2000                                                 
 MAXIMUM MEMORY USE IS:     6500000
 THIS IS TAKEN AS THE MAXIMUM OF THE UNUSED MEMORY REQUESTED
 IN GAMESS $SYSTEM BLOCK AND MEMORY REQUESTED IN VB2000 DATA

 Input of molecule
 =================
 #! VB(4)/STO-3G                                                                 
                                                                                 
 Title: Water                                                                           

 Charge =  0 Multiplicity =  1

 ATOM      ATOMIC                      COORDINATES (ANGS)
           CHARGE         X                   Y                   Z
 OXYGEN      8.0     0.0000000000        0.0000000000        0.0000000000
 HYDROGEN    1.0     0.0000000000        0.7572153431        0.5865355234
 HYDROGEN    1.0     0.0000000000       -0.7572153431        0.5865355234

 Hartree-Fock Energy from Gamess run =     -74.963028644388

 Basis set size =    7

 BASIS IN $BASIS IS STO      WITH IGAUSS = 3

 VBO LIB IS: /home/brian/qchem/gamess/vb2000/VBOLIB/VBOLIBSTO-nG                             

 PARTITIONING OF LMOs INTO GROUPS ($LMOGRP)
 =======================================================================
 LMO#     1  2  3  4  5
 Group#   1  1  1  2  2
 Split    0  0  0  1  1




      GENERAL CONTROLS ($GENCTL)
 ====================================
 Number of electron groups       =    2
 Maximum macro-iterations        =   12
 Energy threshold           = 10**(- 6)
 Restart calculation(0/1/2)      =    0
 Group#                     1  2
 Num. of electrons          6  4
 Num. of spins              0  0
 Num. of orbitals           3  4
 Method#                    1  2

 SYMBOLIC VB STRUCTURE(S) OF GROUP  2
 STR. NO.       RUMER PATTERN  
    1           1  2   3  4


 MAP FILE IS: /home/brian/qchem/gamess/vb2000/MAP/MAP0400t                                    

 ENERGY AND DIFF OF MACROITER    1 =    -75.00048267    -75.00048267

 ENERGY AND DIFF OF MACROITER    2 =    -75.00248616     -0.00200349

 ENERGY AND DIFF OF MACROITER    3 =    -75.00317110     -0.00068494

 ENERGY AND DIFF OF MACROITER    4 =    -75.00336203     -0.00019094

 ENERGY AND DIFF OF MACROITER    5 =    -75.00338635     -0.00002432

 ENERGY AND DIFF OF MACROITER    6 =    -75.00339541     -0.00000905

 ENERGY AND DIFF OF MACROITER    7 =    -75.00339901     -0.00000360

 ENERGY AND DIFF OF MACROITER    8 =    -75.00340074     -0.00000173

 ENERGY AND DIFF OF MACROITER    9 =    -75.00340164     -0.00000090


 OVERLAP MATRIX OF VB ORBITALS FOR GROUP   2

        1      2      3      4
 ===============================
   1 1.0000
   2 0.8026 1.0000
   3 0.1679 0.0982 1.0000
   4 0.0982 0.0403 0.8026 1.0000

 ENERGY AND DIFF OF MACROITER   10 =    -75.00340212     -0.00000048


 MULLIKEN CHARGES ON ATOMS
 -------------------------
  ATOM             CHARGE 

    1            -0.34441
    2             0.17221
    3             0.17221

 -------------------------


 ORBITALS OF EACH ELECTRON GROUP IN AO BASIS: ORBITAL(GROUP)
 ===========================================================================
    Orbital#             1         2         3         4         5         6
      Group#             1         1         1         2         2         2
 ---------------------------------------------------------------------------
  AO# LABELS
   1  1  O     s  -1.02583   0.01452   0.00001  -0.05259   0.00751  -0.05259
   2  1  O     s   0.23444   0.97018  -0.00001   0.17387  -0.21783   0.17387
   3  1  O     x  -0.00001  -0.00001  -1.00000  -0.00000  -0.00000  -0.00000
   4  1  O     y  -0.00000  -0.00000  -0.00000   0.58254   0.18205  -0.58254
   5  1  O     z  -0.07936  -0.27852   0.00000   0.69647   0.32661   0.69647
   6  2  H     s   0.00181  -0.01675   0.00000   0.15078   0.87854  -0.02794
   7  3  H     s   0.00181  -0.01675   0.00000  -0.02794  -0.07321   0.15078

 ===========================================================================
    Orbital#             7
      Group#             2
 ---------------------------------------------------------------------------
  AO# LABELS
   1  1  O     s   0.00751
   2  1  O     s  -0.21783
   3  1  O     x  -0.00000
   4  1  O     y  -0.18205
   5  1  O     z   0.32661
   6  2  H     s  -0.07321
   7  3  H     s   0.87854

 CREATED FILE FOR MOLEKEL ANALYSIS

 CREATED XYZ FILE OF MOLECULAR COORDINATES


 NORMALIZATION OF ORBITAL  1 IS:    5.367015
 NORMALIZATION SUGGESTS YOU NEED MORE GRID POINTS,
 BUT VALUE WITH INNER CORE ELECTRONS CAN BE FAR FROM 1.00.
 GRID FILE FOR ORBITAL   1 CREATED AS exam-vb04-orb-001.grd                                           

 NORMALIZATION OF ORBITAL  2 IS:    1.003351
 GRID FILE FOR ORBITAL   2 CREATED AS exam-vb04-orb-002.grd                                           

 NORMALIZATION OF ORBITAL  3 IS:    0.999392
 GRID FILE FOR ORBITAL   3 CREATED AS exam-vb04-orb-003.grd                                           

 NORMALIZATION OF ORBITAL  4 IS:    1.009172
 GRID FILE FOR ORBITAL   4 CREATED AS exam-vb04-orb-004.grd                                           

 NORMALIZATION OF ORBITAL  5 IS:    1.000155
 GRID FILE FOR ORBITAL   5 CREATED AS exam-vb04-orb-005.grd                                           

 NORMALIZATION OF ORBITAL  6 IS:    1.009172
 GRID FILE FOR ORBITAL   6 CREATED AS exam-vb04-orb-006.grd                                           

 NORMALIZATION OF ORBITAL  7 IS:    1.000155
 GRID FILE FOR ORBITAL   7 CREATED AS exam-vb04-orb-007.grd                                           

 TIME FOR GRID =   0.560

 CALCULATION OF POSITION AND EXTENT OF VB ORBITALS

 DEFAULT CENTROIDS AND EXTENTS.

 MOLECULAR GEOMETRY ABOUT CENTER OF MASS

  Atom#   ATOMIC NO.     X        Y        Z
    1         8       -0.0000   0.0000  -0.0656
    2         1        0.0000   0.7572   0.5209
    3         1       -0.0000  -0.7572   0.5209

 CENTROIDS OF CHARGE FOR EACH VB GROUP & DISTANCES FROM 3 ATOMS

                                                  DISTANCES FROM ATOMS
 Orbital#   Group#       X        Y        Z        1        2        3
    4         2       -0.0000   0.1509   0.0870   0.2146   0.7456   1.0065
    5         2       -0.0000   0.6172   0.4265   0.7894   0.1689   1.3776
    6         2       -0.0000  -0.1509   0.0870   0.2146   1.0065   0.7456
    7         2       -0.0000  -0.6172   0.4265   0.7894   1.3776   0.1689

 EXTENT OF ORBITAL MEASURED BY (<R**2>)

 Orbital#   Group#     <X**2>   <Y**2>   <Z**2>   <R**2> Sqrt<R**2>

    4         2        0.0936   0.1740   0.1790   0.4466   0.6683
    5         2        0.1527   0.2579   0.2236   0.6342   0.7964
    6         2        0.0936   0.1740   0.1790   0.4466   0.6683
    7         2        0.1527   0.2579   0.2236   0.6342   0.7964

 WORDS OF DYNAMIC MEMORY USED IN VB2000 CODE ONLY:        7428
 NOTE THAT THIS IS IN ADDITION TO MEMORY USED BY GAMESS
 PRINTED NEAR END OF OUTPUT. ADD THE TWO AMOUNTS TO GIVE
 THE TOTAL MEMORY USED BY THE JOB

 STATISTICS OF CPU TIMES (SECONDS)
 CPU TIME FOR INITIALIZATION        0.000
 CPU TIME FOR MACROITERATION        0.620
 TOTAL CPU TIME                     0.620

 STEP CPU TIME =     0.68 TOTAL CPU TIME =        0.7 (    0.0 MIN)
 TOTAL WALL CLOCK TIME=        0.7 SECONDS, CPU UTILIZATION IS  98.59%

 **************************************************************
 *                                                            *
 *                  ENDING GAMESS(US) VB2000                  *
 *                                                            *
 *  Properties for individual molecular orbitals are correct  *
 *   only for VB modified orbitals in a Hartree-Fock group.   *
 *                                                            *
 **************************************************************

     ----------------------------------
     PROPERTIES FOR THE VB WAVEFUNCTION
     ----------------------------------

          -----------------
          ENERGY COMPONENTS
          -----------------

         WAVEFUNCTION NORMALIZATION =       1.0000000000

                ONE ELECTRON ENERGY =    -122.2657632585
                TWO ELECTRON ENERGY =      38.0731465211
           NUCLEAR REPULSION ENERGY =       9.1892146195
                                      ------------------
                       TOTAL ENERGY =     -75.0034021179

 ELECTRON-ELECTRON POTENTIAL ENERGY =      38.0731465211
  NUCLEUS-ELECTRON POTENTIAL ENERGY =    -196.9034016252
   NUCLEUS-NUCLEUS POTENTIAL ENERGY =       9.1892146195
                                      ------------------
             TOTAL POTENTIAL ENERGY =    -149.6410404847
               TOTAL KINETIC ENERGY =      74.6376383667
                 VIRIAL RATIO (V/T) =       2.0049005269

          ---------------------------------------
          MULLIKEN AND LOWDIN POPULATION ANALYSES
          ---------------------------------------

     ATOMIC MULLIKEN POPULATION IN EACH MOLECULAR ORBITAL

                      1          2          3          4          5

                  2.000000   2.000000   2.000000   2.000000   2.000000

    1             1.999717   2.024988   2.000000   1.681879   2.000000
    2             0.000141  -0.012494  -0.000000   0.159061   0.000000
    3             0.000141  -0.012494  -0.000000   0.159061   0.000000

               ----- POPULATIONS IN EACH AO -----
                             MULLIKEN      LOWDIN
              1  O  1  S      1.99770     1.99618
              2  O  1  S      1.84098     1.68878
              3  O  1  X      2.00000     2.00000
              4  O  1  Y      1.06585     1.09485
              5  O  1  Z      1.43989     1.45469
              6  H  2  S      0.82779     0.88275
              7  H  3  S      0.82779     0.88275

          ----- MULLIKEN ATOMIC OVERLAP POPULATIONS -----
          (OFF-DIAGONAL ELEMENTS NEED TO BE MULTIPLIED BY 2)

             1           2           3

    1    7.8693589
    2    0.2375265   0.6357912
    3    0.2375264  -0.0455235   0.6357912

          TOTAL MULLIKEN AND LOWDIN ATOMIC POPULATIONS
       ATOM         MULL.POP.    CHARGE          LOW.POP.     CHARGE
    1 OXYGEN        8.344412   -0.344412         8.234501   -0.234501
    2 HYDROGEN      0.827794    0.172206         0.882749    0.117251
    3 HYDROGEN      0.827794    0.172206         0.882749    0.117251

          -------------------------------
          BOND ORDER AND VALENCE ANALYSIS     BOND ORDER THRESHOLD=0.050
          -------------------------------

                   BOND                       BOND                       BOND
  ATOM PAIR DIST  ORDER      ATOM PAIR DIST  ORDER      ATOM PAIR DIST  ORDER
    1   2  0.958  0.912        1   3  0.958  0.912

                       TOTAL       BONDED        FREE
      ATOM            VALENCE     VALENCE     VALENCE
    1 OXYGEN            1.917       1.824       0.093
    2 HYDROGEN          0.970       0.923       0.048
    3 HYDROGEN          0.970       0.923       0.048

          ---------------------
          ELECTROSTATIC MOMENTS
          ---------------------

 POINT   1           X           Y           Z (BOHR)    CHARGE
                 0.000000    0.000000    0.124046        0.00 (A.U.)
         DX          DY          DZ         /D/  (DEBYE)
    -0.000000    0.000000    1.636926    1.636926
 ...... END OF PROPERTY EVALUATION ......
 STEP CPU TIME =     0.00 TOTAL CPU TIME =        0.7 (    0.0 MIN)
 TOTAL WALL CLOCK TIME=        0.7 SECONDS, CPU UTILIZATION IS  98.59%
               580000  WORDS OF DYNAMIC MEMORY USED
 EXECUTION OF GAMESS TERMINATED NORMALLY Mon Oct 14 07:27:03 2013
 DDI: 263624 bytes (0.3 MB / 0 MWords) used by master data server.

 ----------------------------------------
 CPU timing information for all processes
 ========================================
 0: 0.692 + 0.16 = 0.708
 ----------------------------------------
 ddikick.x: exited gracefully.
unset echo
----- accounting info -----
Files used on the master node titch-64 were:
-rw-r--r-- 1 brian brian    1469 Oct 14 07:27 /scr/brian/exam-vb04.F05
-rw-rw-r-- 1 brian brian  180016 Oct 14 07:27 /scr/brian/exam-vb04.F08
-rw-rw-r-- 1 brian brian 1505120 Oct 14 07:27 /scr/brian/exam-vb04.F10
-rw-rw-r-- 1 brian brian    1602 Oct 14 07:27 /scr/brian/exam-vb04.mkl
-rw-rw-r-- 1 brian brian      88 Oct 14 07:27 /scr/brian/exam-vb04.TEMP02
-rw-rw-r-- 1 brian brian      88 Oct 14 07:27 /scr/brian/exam-vb04.TEMP03
-rw-rw-r-- 1 brian brian     448 Oct 14 07:27 /scr/brian/exam-vb04.TEMP04
-rw-rw-r-- 1 brian brian    1944 Oct 14 07:27 /scr/brian/exam-vb04.V80
-rw-rw-r-- 1 brian brian       0 Oct 14 07:27 /scr/brian/exam-vb04.V82
-rw-rw-r-- 1 brian brian       0 Oct 14 07:27 /scr/brian/exam-vb04.V83
-rw-rw-r-- 1 brian brian     724 Oct 14 07:27 /scr/brian/exam-vb04.V84
-rw-rw-r-- 1 brian brian    6520 Oct 14 07:27 /scr/brian/exam-vb04.V85
-rw-rw-r-- 1 brian brian  196592 Oct 14 07:27 /scr/brian/exam-vb04.V86
-rw-rw-r-- 1 brian brian  196592 Oct 14 07:27 /scr/brian/exam-vb04.V87
-rw-rw-r-- 1 brian brian     736 Oct 14 07:27 /scr/brian/exam-vb04.V88
-rw-rw-r-- 1 brian brian       0 Oct 14 07:27 /scr/brian/exam-vb04.V89
-rw-rw-r-- 1 brian brian     163 Oct 14 07:27 /scr/brian/exam-vb04.xyz
ls: No match.
ls: No match.
Mon Oct 14 07:27:06 EST 2013
0.080u 0.012s 0:03.88 2.3%	0+0k 8+24io 0pf+0w
