----- GAMESS execution script 'rungms' -----
This job is running on host titch-64
under operating system Linux at Mon Oct 14 07:30:00 EST 2013
Available scratch disk space (Kbyte units) at beginning of the job is
Filesystem     1K-blocks      Used Available Use% Mounted on
/dev/sda1      945022356 138268712 758749292  16% /
GAMESS temporary binary files will be written to /scr/brian
GAMESS supplementary output files will be written to /home/brian/scr
Copying input file exam-vb23.inp to your run's scratch directory...
cp tests/exam-vb23.inp /scr/brian/exam-vb23.F05
unset echo
/home/brian/qchem/gamess/ddikick.x /home/brian/qchem/gamess/gamess.01.x exam-vb23 -ddi 1 1 titch-64 -scr /scr/brian

 Distributed Data Interface kickoff program.
 Initiating 1 compute processes on 1 nodes to run the following command:
 /home/brian/qchem/gamess/gamess.01.x exam-vb23 

          ******************************************************
          *         GAMESS VERSION =  1 MAY 2013 (R1)          *
          *             FROM IOWA STATE UNIVERSITY             *
          * M.W.SCHMIDT, K.K.BALDRIDGE, J.A.BOATZ, S.T.ELBERT, *
          *   M.S.GORDON, J.H.JENSEN, S.KOSEKI, N.MATSUNAGA,   *
          *          K.A.NGUYEN, S.J.SU, T.L.WINDUS,           *
          *       TOGETHER WITH M.DUPUIS, J.A.MONTGOMERY       *
          *         J.COMPUT.CHEM.  14, 1347-1363(1993)        *
          **************** 64 BIT LINUX VERSION ****************

  SINCE 1993, STUDENTS AND POSTDOCS WORKING AT IOWA STATE UNIVERSITY
  AND ALSO IN THEIR VARIOUS JOBS AFTER LEAVING ISU HAVE MADE IMPORTANT
  CONTRIBUTIONS TO THE CODE:
     IVANA ADAMOVIC, CHRISTINE AIKENS, YURI ALEXEEV, POOJA ARORA,
     ANDREY ASADCHEV, ROB BELL, PRADIPTA BANDYOPADHYAY, JONATHAN BENTZ,
     BRETT BODE, GALINA CHABAN, WEI CHEN, CHEOL HO CHOI, PAUL DAY,
     ALBERT DEFUSCO, TIM DUDLEY, DMITRI FEDOROV, GRAHAM FLETCHER,
     MARK FREITAG, KURT GLAESEMANN, DAN KEMP, GRANT MERRILL,
     NORIYUKI MINEZAWA, JONATHAN MULLIN, TAKESHI NAGATA,
     SEAN NEDD, HEATHER NETZLOFF, BOSILJKA NJEGIC, RYAN OLSON, MIKE PAK,
     JIM SHOEMAKER, LYUDMILA SLIPCHENKO, SAROM SOK, JIE SONG,
     TETSUYA TAKETSUGU, SIMON WEBB, SOOHAENG YOO, FEDERICO ZAHARIEV

  ADDITIONAL CODE HAS BEEN PROVIDED BY COLLABORATORS IN OTHER GROUPS:
     IOWA STATE UNIVERSITY:
          JOE IVANIC, LAIMUTIS BYTAUTAS, KLAUS RUEDENBERG
     UNIVERSITY OF TOKYO: KIMIHIKO HIRAO, TAKAHITO NAKAJIMA,
          TAKAO TSUNEDA, MUNEAKI KAMIYA, SUSUMU YANAGISAWA,
          KIYOSHI YAGI, MAHITO CHIBA, SEIKEN TOKURA, NAOAKI KAWAKAMI
     UNIVERSITY OF AARHUS: FRANK JENSEN
     UNIVERSITY OF IOWA: VISVALDAS KAIRYS, HUI LI
     NATIONAL INST. OF STANDARDS AND TECHNOLOGY: WALT STEVENS, DAVID GARMER
     UNIVERSITY OF PISA: BENEDETTA MENNUCCI, JACOPO TOMASI
     UNIVERSITY OF MEMPHIS: HENRY KURTZ, PRAKASHAN KORAMBATH
     UNIVERSITY OF ALBERTA: TOBY ZENG, MARIUSZ KLOBUKOWSKI
     UNIVERSITY OF NEW ENGLAND: MARK SPACKMAN
     MIE UNIVERSITY: HIROAKI UMEDA
     MICHIGAN STATE UNIVERSITY:
          KAROL KOWALSKI, MARTA WLOCH, JEFFREY GOUR, JESSE LUTZ,
          WEI LI, PIOTR PIECUCH
     UNIVERSITY OF SILESIA: MONIKA MUSIAL, STANISLAW KUCHARSKI
     FACULTES UNIVERSITAIRES NOTRE-DAME DE LA PAIX:
          OLIVIER QUINET, BENOIT CHAMPAGNE
     UNIVERSITY OF CALIFORNIA - SANTA BARBARA: BERNARD KIRTMAN
     INSTITUTE FOR MOLECULAR SCIENCE:
          KAZUYA ISHIMURA, MICHIO KATOUDA, AND SHIGERU NAGASE
     UNIVERSITY OF NOTRE DAME: DAN CHIPMAN
     KYUSHU UNIVERSITY:
          HARUYUKI NAKANO,
          FENG LONG GU, JACEK KORCHOWIEC, MARCIN MAKOWSKI, AND YURIKO AOKI,
          HIROTOSHI MORI AND EISAKU MIYOSHI
     PENNSYLVANIA STATE UNIVERSITY:
          TZVETELIN IORDANOV, CHET SWALINA, JONATHAN SKONE,
          SHARON HAMMES-SCHIFFER
     WASEDA UNIVERSITY:
          MASATO KOBAYASHI, TOMOKO AKAMA, TSUGUKI TOUMA,
          TAKESHI YOSHIKAWA, YASUHIRO IKABATA, HIROMI NAKAI
     NANJING UNIVERSITY: SHUHUA LI
     UNIVERSITY OF NEBRASKA:
          PEIFENG SU, DEJUN SI, NANDUN THELLAMUREGE, YALI WANG, HUI LI
     UNIVERSITY OF ZURICH:
          ROBERTO PEVERATI, KIM BALDRIDGE
     N. COPERNICUS UNIVERSITY AND JACKSON STATE UNIVERSITY:
          MARIA BARYSZ

 EXECUTION OF GAMESS BEGUN Mon Oct 14 07:30:00 2013

            ECHO OF THE FIRST FEW INPUT CARDS -
 INPUT CARD>! GAMESS/VB2000 Test 23.                                                        
 INPUT CARD>! This run is an example of a VB2000 run for a closed shell case with           
 INPUT CARD>! localization enhancement control.                                             
 INPUT CARD>!                                                                               
 INPUT CARD>! The final RHF energy is:=                                                     
 INPUT CARD>!                                                                               
 INPUT CARD>!  RHF ENERGY IS -76.0098376605 AFTER  10 ITERATIONS                            
 INPUT CARD>!                                                                               
 INPUT CARD>! The VB final energy is:-                                                      
 INPUT CARD>!                                                                               
 INPUT CARD>! ENERGY AND DIFF OF MACROITER  486 =    -76.03271913      0.00000000           
 INPUT CARD>!                                                                               
 INPUT CARD>! and the VB and HF dipole moments are 2.3967 and 2.5778 respectively.          
 INPUT CARD>!                                                                               
 INPUT CARD>! Note that a very large number of macroiterations has to be done, but          
 INPUT CARD>! these are each quite fast.                                                    
 INPUT CARD>!                                                                               
 INPUT CARD>! The delocalization penalty weight is often set to a small value like          
 INPUT CARD>! 0.1 for $DPWEIGHT. This leads to some delocalisation but not full             
 INPUT CARD>! delocalization. This example sets a very high value of $DPWEIGHT and          
 INPUT CARD>! then uses an undocumented option $WSTART, to start localisation to            
 INPUT CARD>! that small value and then slowly step up to the higher value of               
 INPUT CARD>! $DPWEIGHT. That is why a large number of macroiterations is required.         
 INPUT CARD>! The LENHANCE data block is for group 2 - the VB(4) group. The 4 VB            
 INPUT CARD>! orbitals are localized on atoms 1, 2, 1 and 3.                                
 INPUT CARD>!                                                                               
 INPUT CARD>! $DPWEIGHT                                                                     
 INPUT CARD>! 10000000.0                                                                    
 INPUT CARD>!                                                                               
 INPUT CARD>! $WSTART                                                                       
 INPUT CARD>! 0.1                                                                           
 INPUT CARD>!                                                                               
 INPUT CARD>! $02LENHANCE                                                                   
 INPUT CARD>! 4                                                                             
 INPUT CARD>! 1,1,1                                                                         
 INPUT CARD>! 2,1,2                                                                         
 INPUT CARD>! 3,1,1                                                                         
 INPUT CARD>! 4,1,3                                                                         
 INPUT CARD>!                                                                               
 INPUT CARD>! This run also tests the DIIS convergence method and a tight convergence       
 INPUT CARD>! control. The delocalisation should be:-                                       
 INPUT CARD>!                                                                               
 INPUT CARD>! DELOCALIZATION FOR VB ORBITALS OF GROUP  2                                    
 INPUT CARD>! =============================================                                 
 INPUT CARD>! VBO INDEX =  1 DELOCALIZATION =   0.00000                                     
 INPUT CARD>! VBO INDEX =  2 DELOCALIZATION =   0.00000                                     
 INPUT CARD>! VBO INDEX =  3 DELOCALIZATION =   0.00000                                     
 INPUT CARD>! VBO INDEX =  4 DELOCALIZATION =   0.00000                                     
 INPUT CARD>!                                                                               
 INPUT CARD>! This system can lead to a failure in the GAMESS RHF calculation with          
    2000000 WORDS OF MEMORY AVAILABLE


     RUN TITLE
     ---------
 Water D95                                                                       

 THE POINT GROUP OF THE MOLECULE IS C1      
 THE ORDER OF THE PRINCIPAL AXIS IS     0
 *** WARNING! ATOM   2 SHELL    7 TYPE S HAS NORMALIZATION   1.00000234
 *** WARNING! ATOM   3 SHELL    9 TYPE S HAS NORMALIZATION   1.00000234

 ATOM      ATOMIC                      COORDINATES (BOHR)
           CHARGE         X                   Y                   Z
 OXYGEN      8.0     0.0000000000        0.0000000000        0.0000000000
 HYDROGEN    1.0     1.5152616654        0.0000000000        1.0498977437
 HYDROGEN    1.0    -1.5152616654        0.0000000000        1.0498977437

          INTERNUCLEAR DISTANCES (ANGS.)
          ------------------------------

                1 OXYG       2 HYDR       3 HYDR  

   1 OXYG    0.0000000    0.9755111 *  0.9755111 *
   2 HYDR    0.9755111 *  0.0000000    1.6036840 *
   3 HYDR    0.9755111 *  1.6036840 *  0.0000000  

  * ... LESS THAN  3.000


     ATOMIC BASIS SET
     ----------------
 THE CONTRACTED PRIMITIVE FUNCTIONS HAVE BEEN UNNORMALIZED
 THE CONTRACTED BASIS FUNCTIONS ARE NOW NORMALIZED TO UNITY

  SHELL TYPE  PRIMITIVE        EXPONENT          CONTRACTION COEFFICIENT(S)

 OXYGEN    

      1   S       1          7816.5400000    0.002030998165
      1   S       2          1175.8200000    0.015435986053
      1   S       3           273.1880000    0.073770933345
      1   S       4            81.1696000    0.247605776277
      1   S       5            27.1836000    0.611831447183
      1   S       6             3.4136000    0.241204782061

      2   S       7             9.5322000    1.000000000000

      3   S       8             0.9398000    1.000000000000

      4   S       9             0.2846000    1.000000000000

      5   P      10            35.1832000    0.019579982520
      5   P      11             7.9040000    0.124188889130
      5   P      12             2.3051000    0.394726647606
      5   P      13             0.7171000    0.627374439909

      6   P      14             0.2137000    1.000000000000

 HYDROGEN  

      7   S      15            19.2406000    0.032828076968
      7   S      16             2.8992000    0.231208542086
      7   S      17             0.6534000    0.817239916083

      8   S      18             0.1776000    1.000000000000

 HYDROGEN  

      9   S      19            19.2406000    0.032828076968
      9   S      20             2.8992000    0.231208542086
      9   S      21             0.6534000    0.817239916083

     10   S      22             0.1776000    1.000000000000

 TOTAL NUMBER OF BASIS SET SHELLS             =   10
 NUMBER OF CARTESIAN GAUSSIAN BASIS FUNCTIONS =   14
 NUMBER OF ELECTRONS                          =   10
 CHARGE OF MOLECULE                           =    0
 SPIN MULTIPLICITY                            =    1
 NUMBER OF OCCUPIED ORBITALS (ALPHA)          =    5
 NUMBER OF OCCUPIED ORBITALS (BETA )          =    5
 TOTAL NUMBER OF ATOMS                        =    3
 THE NUCLEAR REPULSION ENERGY IS        9.0093603723

     $CONTRL OPTIONS
     ---------------
 SCFTYP=RHF          RUNTYP=ENERGY       EXETYP=RUN     
 MPLEVL=       0     CITYP =NONE         CCTYP =NONE         VBTYP =VB2000  
 DFTTYP=NONE         TDDFT =NONE    
 MULT  =       1     ICHARG=       0     NZVAR =       0     COORD =UNIQUE  
 PP    =NONE         RELWFN=NONE         LOCAL =NONE         NUMGRD=       F
 ISPHER=      -1     NOSYM =       0     MAXIT =      30     UNITS =ANGS    
 PLTORB=       F     MOLPLT=       F     AIMPAC=       F     FRIEND=        
 NPRINT=       7     IREST =       0     GEOM  =INPUT   
 NORMF =       0     NORMP =       0     ITOL  =      20     ICUT  =       9
 INTTYP=BEST         GRDTYP=BEST         QMTTOL= 1.0E-06

     $SYSTEM OPTIONS
     ---------------
  REPLICATED MEMORY=     2000000 WORDS (ON EVERY NODE).
 DISTRIBUTED MEMDDI=           0 MILLION WORDS IN AGGREGATE,
 MEMDDI DISTRIBUTED OVER   1 PROCESSORS IS           0 WORDS/PROCESSOR.
 TOTAL MEMORY REQUESTED ON EACH PROCESSOR=     2000000 WORDS.
 TIMLIM=          20.00 MINUTES, OR       0.0 DAYS.
 PARALL= F  BALTYP=  DLB     KDIAG=    3  COREFL= F
 MXSEQ2=     300 MXSEQ3=     150

          ----------------
          PROPERTIES INPUT
          ----------------

     MOMENTS            FIELD           POTENTIAL          DENSITY
 IEMOM =       1   IEFLD =       0   IEPOT =       0   IEDEN =       0
 WHERE =COMASS     WHERE =NUCLEI     WHERE =NUCLEI     WHERE =NUCLEI  
 OUTPUT=BOTH       OUTPUT=BOTH       OUTPUT=BOTH       OUTPUT=BOTH    
 IEMINT=       0   IEFINT=       0                     IEDINT=       0
                                                       MORB  =       0
          EXTRAPOLATION IN EFFECT
          SOSCF IN EFFECT
 ORBITAL PRINTING OPTION: NPREO=     1    14     2     1

     -------------------------------
     INTEGRAL TRANSFORMATION OPTIONS
     -------------------------------
     NWORD  =            0
     CUTOFF = 1.0E-09     MPTRAN =       0
     DIRTRF =       F     AOINTS =DUP     

          ----------------------
          INTEGRAL INPUT OPTIONS
          ----------------------
 NOPK  =       1 NORDER=       0 SCHWRZ=       F

     ------------------------------------------
     THE POINT GROUP IS C1 , NAXIS= 0, ORDER= 1
     ------------------------------------------

     DIMENSIONS OF THE SYMMETRY SUBSPACES ARE
 A   =   14

 ..... DONE SETTING UP THE RUN .....
 STEP CPU TIME =     0.00 TOTAL CPU TIME =        0.0 (    0.0 MIN)
 TOTAL WALL CLOCK TIME=        0.0 SECONDS, CPU UTILIZATION IS   0.00%

          ********************
          1 ELECTRON INTEGRALS
          ********************
 ...... END OF ONE-ELECTRON INTEGRALS ......
 STEP CPU TIME =     0.00 TOTAL CPU TIME =        0.0 (    0.0 MIN)
 TOTAL WALL CLOCK TIME=        0.0 SECONDS, CPU UTILIZATION IS   0.00%

          -------------
          GUESS OPTIONS
          -------------
          GUESS =HUCKEL            NORB  =       0          NORDER=       0
          MIX   =       F          PRTMO =       F          PUNMO =       F
          TOLZ  = 1.0E-08          TOLE  = 1.0E-05
          SYMDEN=       F          PURIFY=       F

 INITIAL GUESS ORBITALS GENERATED BY HUCKEL   ROUTINE.
 HUCKEL GUESS REQUIRES      3745 WORDS.

 SYMMETRIES FOR INITIAL GUESS ORBITALS FOLLOW.   BOTH SET(S).
     5 ORBITALS ARE OCCUPIED (    1 CORE ORBITALS).
     2=A        3=A        4=A        5=A        6=A        7=A        8=A   
     9=A       10=A       11=A       12=A       13=A       14=A   
 ...... END OF INITIAL ORBITAL SELECTION ......
 STEP CPU TIME =     0.00 TOTAL CPU TIME =        0.0 (    0.0 MIN)
 TOTAL WALL CLOCK TIME=        0.0 SECONDS, CPU UTILIZATION IS   0.00%

                    ----------------------
                    AO INTEGRAL TECHNOLOGY
                    ----------------------
     S,P,L SHELL ROTATED AXIS INTEGRALS, REPROGRAMMED BY
        KAZUYA ISHIMURA (IMS) AND JOSE SIERRA (SYNSTAR).
     S,P,D,L SHELL ROTATED AXIS INTEGRALS PROGRAMMED BY
        KAZUYA ISHIMURA (INSTITUTE FOR MOLECULAR SCIENCE).
     S,P,D,F,G SHELL TO TOTAL QUARTET ANGULAR MOMENTUM SUM 5,
        ERIC PROGRAM BY GRAHAM FLETCHER (ELORET AND NASA ADVANCED
        SUPERCOMPUTING DIVISION, AMES RESEARCH CENTER).
     S,P,D,F,G,L SHELL GENERAL RYS QUADRATURE PROGRAMMED BY
        MICHEL DUPUIS (PACIFIC NORTHWEST NATIONAL LABORATORY).

          --------------------
          2 ELECTRON INTEGRALS
          --------------------

 THE -PK- OPTION IS OFF, THE INTEGRALS ARE NOT IN SUPERMATRIX FORM.
 STORING   15000 INTEGRALS/RECORD ON DISK, USING 12 BYTES/INTEGRAL.
 TWO ELECTRON INTEGRAL EVALUATION REQUIRES   89411 WORDS OF MEMORY.
 II,JST,KST,LST =  1  1  1  1 NREC =         1 INTLOC =    1
 II,JST,KST,LST =  2  1  1  1 NREC =         1 INTLOC =    2
 II,JST,KST,LST =  3  1  1  1 NREC =         1 INTLOC =    7
 II,JST,KST,LST =  4  1  1  1 NREC =         1 INTLOC =   22
 II,JST,KST,LST =  5  1  1  1 NREC =         1 INTLOC =   56
 II,JST,KST,LST =  6  1  1  1 NREC =         1 INTLOC =  125
 II,JST,KST,LST =  7  1  1  1 NREC =         1 INTLOC =  329
 II,JST,KST,LST =  8  1  1  1 NREC =         1 INTLOC =  760
 II,JST,KST,LST =  9  1  1  1 NREC =         1 INTLOC = 1334
 II,JST,KST,LST = 10  1  1  1 NREC =         1 INTLOC = 2069
 TOTAL NUMBER OF NONZERO TWO-ELECTRON INTEGRALS =                3009
          1 INTEGRAL RECORDS WERE STORED ON DISK FILE  8.
  ...... END OF TWO-ELECTRON INTEGRALS .....
 STEP CPU TIME =     0.02 TOTAL CPU TIME =        0.0 (    0.0 MIN)
 TOTAL WALL CLOCK TIME=        0.0 SECONDS, CPU UTILIZATION IS  66.67%

          --------------------------
                 RHF SCF CALCULATION
          --------------------------

     NUCLEAR ENERGY =         9.0093603723
     MAXIT =   30     NPUNCH=    2
     EXTRAP=T  DAMP=F  SHIFT=F  RSTRCT=F  DIIS=F  DEM=F  SOSCF=T
     DENSITY MATRIX CONV=  1.00E-05
     SOSCF WILL OPTIMIZE      45 ORBITAL ROTATIONS, SOGTOL=   0.250
     MEMORY REQUIRED FOR RHF ITERS=     31748 WORDS.

 ITER EX DEM     TOTAL ENERGY        E CHANGE  DENSITY CHANGE     ORB. GRAD
   1  0  0      -75.7825964333   -75.7825964333   0.224650783   0.000000000
          ---------------START SECOND ORDER SCF---------------
   2  1  0      -75.9946325860    -0.2120361527   0.062293893   0.062760173
   3  2  0      -76.0083085136    -0.0136759276   0.034498647   0.013590464
   4  3  0      -76.0097666189    -0.0014581053   0.008458642   0.003702597
   5  4  0      -76.0098225020    -0.0000558831   0.002686877   0.001857988
   6  5  0      -76.0098369200    -0.0000144180   0.000889021   0.000349160
   7  6  0      -76.0098376375    -0.0000007175   0.000141294   0.000073743
   8  7  0      -76.0098376574    -0.0000000198   0.000083641   0.000029204
   9  8  0      -76.0098376605    -0.0000000032   0.000005589   0.000003301
  10  9  0      -76.0098376605    -0.0000000000   0.000001319   0.000000500

          -----------------
          DENSITY CONVERGED
          -----------------
     TIME TO FORM FOCK OPERATORS=       0.0 SECONDS (       0.0 SEC/ITER)
     TIME TO SOLVE SCF EQUATIONS=       0.0 SECONDS (       0.0 SEC/ITER)

 FINAL RHF ENERGY IS      -76.0098376605 AFTER  10 ITERATIONS

          ------------
          EIGENVECTORS
          ------------

                      1          2          3          4          5
                  -20.5581    -1.3459    -0.7172    -0.5530    -0.5025
                     A          A          A          A          A   
    1  O  1  S    0.581012  -0.130941  -0.000000   0.044407  -0.000000
    2  O  1  S    0.461238  -0.181527  -0.000000   0.061989  -0.000000
    3  O  1  S   -0.000166   0.511096  -0.000000  -0.188614  -0.000000
    4  O  1  S    0.001877   0.460447  -0.000000  -0.249763  -0.000000
    5  O  1  X   -0.000000   0.000000   0.569277  -0.000000  -0.000000
    6  O  1  Y   -0.000000   0.000000  -0.000000  -0.000000   0.727677
    7  O  1  Z    0.001591   0.117049  -0.000000   0.633272  -0.000000
    8  O  1  X   -0.000000   0.000000   0.178846  -0.000000  -0.000000
    9  O  1  Y   -0.000000   0.000000  -0.000000  -0.000000   0.410295
   10  O  1  Z   -0.000453   0.032478  -0.000000   0.338847  -0.000000
   11  H  2  S    0.000040   0.132500   0.253144   0.133633  -0.000000
   12  H  2  S   -0.000183   0.007729   0.128386   0.061411  -0.000000
   13  H  3  S    0.000040   0.132500  -0.253144   0.133633  -0.000000
   14  H  3  S   -0.000183   0.007729  -0.128386   0.061411  -0.000000

                      6          7          8          9         10
                    0.2140     0.3061     0.8676     0.8918     0.9433
                     A          A          A          A          A   
    1  O  1  S   -0.050770  -0.000000  -0.000000  -0.020819   0.000000
    2  O  1  S   -0.068028  -0.000000  -0.000000  -0.029194   0.000000
    3  O  1  S    0.111881  -0.000000  -0.000000   0.077917   0.000000
    4  O  1  S    1.227709  -0.000000  -0.000000   0.351483   0.000000
    5  O  1  X    0.000000   0.404332  -0.000000   0.000000  -0.541095
    6  O  1  Y    0.000000  -0.000000  -0.902571   0.000000   0.000000
    7  O  1  Z    0.263428  -0.000000  -0.000000  -0.869352   0.000000
    8  O  1  X    0.000000   1.044591  -0.000000   0.000000   1.715720
    9  O  1  Y    0.000000  -0.000000   1.084346   0.000000   0.000000
   10  O  1  Z    0.494983  -0.000000  -0.000000   1.285947   0.000000
   11  H  2  S   -0.066060  -0.036124  -0.000000  -0.161464  -0.571570
   12  H  2  S   -1.036679  -1.533865  -0.000000  -0.242859  -0.419148
   13  H  3  S   -0.066060   0.036124  -0.000000  -0.161464   0.571570
   14  H  3  S   -1.036679   1.533865  -0.000000  -0.242859   0.419148

                     11         12         13         14
                    1.1693     1.2271     1.6522    43.3291
                     A          A          A          A   
    1  O  1  S    0.046437   0.000000   0.143307  -1.731320
    2  O  1  S    0.069951   0.000000   0.251807   1.876660
    3  O  1  S   -0.306098   0.000000  -1.965799  -0.390427
    4  O  1  S    0.175750   0.000000   2.840152   0.345912
    5  O  1  X    0.000000  -0.846628   0.000000  -0.000000
    6  O  1  Y    0.000000   0.000000   0.000000  -0.000000
    7  O  1  Z   -0.373890   0.000000  -0.056230  -0.008894
    8  O  1  X    0.000000   0.972009   0.000000  -0.000000
    9  O  1  Y    0.000000   0.000000   0.000000  -0.000000
   10  O  1  Z   -0.090193   0.000000   0.637517   0.061549
   11  H  2  S    0.991175   0.805018  -0.295989  -0.005273
   12  H  2  S   -0.613645  -1.276857  -0.673846  -0.085131
   13  H  3  S    0.991175  -0.805018  -0.295989  -0.005273
   14  H  3  S   -0.613645   1.276857  -0.673846  -0.085131
 ...... END OF RHF CALCULATION ......
 STEP CPU TIME =     0.00 TOTAL CPU TIME =        0.0 (    0.0 MIN)
 TOTAL WALL CLOCK TIME=        0.0 SECONDS, CPU UTILIZATION IS  66.67%

     ----------------------------------------------------------------
     PROPERTY VALUES FOR THE RHF   SELF-CONSISTENT FIELD WAVEFUNCTION
     ----------------------------------------------------------------

          -----------------
          ENERGY COMPONENTS
          -----------------

         WAVEFUNCTION NORMALIZATION =       1.0000000000

                ONE ELECTRON ENERGY =    -122.6848660192
                TWO ELECTRON ENERGY =      37.6656679864
           NUCLEAR REPULSION ENERGY =       9.0093603723
                                      ------------------
                       TOTAL ENERGY =     -76.0098376605

 ELECTRON-ELECTRON POTENTIAL ENERGY =      37.6656679864
  NUCLEUS-ELECTRON POTENTIAL ENERGY =    -198.6615380904
   NUCLEUS-NUCLEUS POTENTIAL ENERGY =       9.0093603723
                                      ------------------
             TOTAL POTENTIAL ENERGY =    -151.9865097317
               TOTAL KINETIC ENERGY =      75.9766720712
                 VIRIAL RATIO (V/T) =       2.0004365233

  ...... PI ENERGY ANALYSIS ......

 ENERGY ANALYSIS:
            FOCK ENERGY=    -47.3535289513
          BARE H ENERGY=   -122.6848660192
     ELECTRONIC ENERGY =    -85.0191974852
         KINETIC ENERGY=     75.9766720712
          N-N REPULSION=      9.0093603723
           TOTAL ENERGY=    -76.0098371130
        SIGMA PART(1+2)=    -77.4692694025
               (K,V1,2)=     71.4309919023   -180.0209511896     31.1206898848
           PI PART(1+2)=     -7.5499280827
               (K,V1,2)=      4.5456801689    -18.6405869008      6.5449786492
  SIGMA SKELETON, ERROR=    -68.4599090303     -0.0000000000
             MIXED PART= 0.00000E+00 0.00000E+00 0.00000E+00 0.00000E+00
 ...... END OF PI ENERGY ANALYSIS ......

          ---------------------------------------
          MULLIKEN AND LOWDIN POPULATION ANALYSES
          ---------------------------------------

     ATOMIC MULLIKEN POPULATION IN EACH MOLECULAR ORBITAL

                      1          2          3          4          5

                  2.000000   2.000000   2.000000   2.000000   2.000000

    1             2.000049   1.729623   1.252266   1.812831   2.000000
    2            -0.000024   0.135189   0.373867   0.093585   0.000000
    3            -0.000024   0.135189   0.373867   0.093585   0.000000

               ----- POPULATIONS IN EACH AO -----
                             MULLIKEN      LOWDIN
              1  O  1  S      1.13222     1.07250
              2  O  1  S      0.86265     0.90920
              3  O  1  S      0.91864     0.86054
              4  O  1  S      0.94074     0.77968
              5  O  1  X      0.96083     0.86522
              6  O  1  Y      1.36117     1.31152
              7  O  1  Z      1.14623     1.08038
              8  O  1  X      0.29144     0.42800
              9  O  1  Y      0.63883     0.68848
             10  O  1  Z      0.54203     0.61006
             11  H  2  S      0.47720     0.45016
             12  H  2  S      0.12542     0.24706
             13  H  3  S      0.47720     0.45016
             14  H  3  S      0.12542     0.24706

          ----- MULLIKEN ATOMIC OVERLAP POPULATIONS -----
          (OFF-DIAGONAL ELEMENTS NEED TO BE MULTIPLIED BY 2)

             1           2           3

    1    8.2360183
    2    0.2793749   0.3536393
    3    0.2793749  -0.0303982   0.3536393

          TOTAL MULLIKEN AND LOWDIN ATOMIC POPULATIONS
       ATOM         MULL.POP.    CHARGE          LOW.POP.     CHARGE
    1 OXYGEN        8.794768   -0.794768         8.605567   -0.605567
    2 HYDROGEN      0.602616    0.397384         0.697216    0.302784
    3 HYDROGEN      0.602616    0.397384         0.697216    0.302784

          -------------------------------
          BOND ORDER AND VALENCE ANALYSIS     BOND ORDER THRESHOLD=0.050
          -------------------------------

                   BOND                       BOND                       BOND
  ATOM PAIR DIST  ORDER      ATOM PAIR DIST  ORDER      ATOM PAIR DIST  ORDER
    1   2  0.976  0.810        1   3  0.976  0.810

                       TOTAL       BONDED        FREE
      ATOM            VALENCE     VALENCE     VALENCE
    1 OXYGEN            1.619       1.619      -0.000
    2 HYDROGEN          0.817       0.817       0.000
    3 HYDROGEN          0.817       0.817      -0.000

          ---------------------
          ELECTROSTATIC MOMENTS
          ---------------------

 POINT   1           X           Y           Z (BOHR)    CHARGE
                 0.000000    0.000000    0.117499       -0.00 (A.U.)
         DX          DY          DZ         /D/  (DEBYE)
     0.000000    0.000000    2.577826    2.577826
 ...... END OF PROPERTY EVALUATION ......
 STEP CPU TIME =     0.00 TOTAL CPU TIME =        0.0 (    0.0 MIN)
 TOTAL WALL CLOCK TIME=        0.0 SECONDS, CPU UTILIZATION IS  66.67%

 **************************************************************
 *                                                            *
 *         ENTERING VB2000 INTERFACED INTO GAMESS(US)         *
 *                                                            *
 **************************************************************

 **************************************************************
 *                                                            *
 *                        V B 2 0 0 0                         *
 *                                                            *
 *       An ab initio Valence-Bond Program Based on the       *
 *           Generalized Product Function Method and          *
 *                   the Algebrant Algorithm                  *
 *                                                            *
 *                   Version 2.7 October 2013                 *
 *                      GAMESS(US) Version                    *
 *                     Compiler: gfortran                     *
 *                                                            *
 *         Jiabo Li*, Brian Duke** and Roy McWeeny***         *
 *                                                            *
 *        * SciNet Technologies, 9943 Fieldthorn St.,         *
 *                   San Diego, CA 92127, USA                 *
 *                                                            *
 *  ** Monash University Institute of Pharmaceutical Sciences,*
 *     381 Royal Pde, Parkville, Victoria, 3052, Australia    *
 *                                                            *
 * *** Department of Chemistry, University of Pisa,           *
 *     56100 Pisa, Italy                                      *
 *                                                            *
 *  Reference for the software:                               *
 *     Jiabo Li, Brian Duke, and Roy McWeeny, VB2000 Version  *
 *     2.7, SciNet Technologies, San Diego, CA, 2013          *
 *     URL: http://www.scinetec.com or http://www.vb2000.net  *
 *                                                            *
 *  References for the theory:                                *
 *     General:                                               *
 *     Jiabo Li, and Roy McWeeny, "VB2000: Pushing Valence    *
 *     Bond Theory to New Limits", Int. J. Quantum Chem.,     *
 *     89(2002)208-216.                                       *
 *                                                            *
 *     Spin densities:-                                       *
 *     Jiabo Li, Brian J. Duke, Thomas M. Klapoetke, and Roy  *
 *     McWeeny, Spin-Density of Spin-Free Valence Bond Wave   *
 *     Functions and Its Implementation in VB2000. J. Theor.  *
 *     Comp. Chem. 7(2008)853-867.                            *
 *                                                            *
 *     Spin coupled - n electrons in m orbitals:-             *
 *     Peter B. Karadakov, David L. Cooper, Brian J. Duke,    *
 *     and Jiabo Li, Spin-Coupled Theory for N Electrons in   *
 *     M Orbitals Active Spaces,  J. Phys. Chem. A, 116,      *
 *     7238 - 7244, 2012                                      *
 *                                                            *
 *  Copyright (C) 2000-2013 by SciNet Technologies            *
 **************************************************************

 JOB NAME IS exam-vb23                                                       

 VB2000 DIRECTORY IS: /home/brian/qchem/gamess/vb2000                                                 
 MAXIMUM MEMORY USE IS:     6500000
 THIS IS TAKEN AS THE MAXIMUM OF THE UNUSED MEMORY REQUESTED
 IN GAMESS $SYSTEM BLOCK AND MEMORY REQUESTED IN VB2000 DATA

 Input of molecule
 =================
 #! VB(4)/D95  PRINTALL DIIS                                                     
                                                                                 
 Title: TEST H2O                                                                        

 Charge =  0 Multiplicity =  1

 ATOM      ATOMIC                      COORDINATES (ANGS)
           CHARGE         X                   Y                   Z
 OXYGEN      8.0     0.0000000000        0.0000000000        0.0000000000
 HYDROGEN    1.0     0.8018419996        0.0000000000        0.5555819997
 HYDROGEN    1.0    -0.8018419996        0.0000000000        0.5555819997

 Hartree-Fock Energy from Gamess run =     -76.009837660532

 Basis set size =   14

                    PARAMETER LIMIT VALUES
 Max. no. of atoms                    MAXCEN =   200
 Max. no. of basis functions          MAXBFN =   726
 Max. no. of shells                   MAXSHL =   500
 Max. no. of total primitives         MAXEXP =  1000
 Max. no. of primitives per orbital   MAXPRM =    15
 Max. no. of atoms * no. of orbitals  MAXNAB = 72600
 Increase max basis set size by       NEXTRA =    20
 Max. size for Rumer data             MAXST1 = 33334
 Max. no. of orbitals in group        MAXNOB =   200
 Max. no. of CUBE orbitals            MAXCUB =   100
 Max. no. of groups                   MAXGRP =    99

 BASIS FROM #! LINE = D95                 

 VBO LIB IS: /home/brian/qchem/gamess/vb2000/VBOLIB/VBOLIBD95                                
 IS BASIS D95 CORRECTLY DEFINED IN $DATA GROUP?

 Molecular orbitals by HF method
 ===============================================================================
 MO#                       1         2         3         4         5         6
 E(a.u.)             -20.558    -1.346    -0.717    -0.553    -0.502     0.214
 -------------------------------------------------------------------------------

   1  1  O     s    -0.58101  -0.13094   0.00000  -0.04441   0.00000  -0.05077
   2  1  O     s    -0.46124  -0.18153   0.00000  -0.06199   0.00000  -0.06803
   3  1  O     s     0.00017   0.51110   0.00000   0.18861   0.00000   0.11188
   4  1  O     s    -0.00188   0.46045   0.00000   0.24976   0.00000   1.22771
   5  1  O     x     0.00000   0.00000  -0.56928   0.00000   0.00000   0.00000
   6  1  O     y     0.00000   0.00000   0.00000   0.00000  -0.72768   0.00000
   7  1  O     z    -0.00159   0.11705   0.00000  -0.63327   0.00000   0.26343
   8  1  O     x     0.00000   0.00000  -0.17885   0.00000   0.00000   0.00000
   9  1  O     y     0.00000   0.00000   0.00000   0.00000  -0.41030   0.00000
  10  1  O     z     0.00045   0.03248   0.00000  -0.33885   0.00000   0.49498
  11  2  H     s    -0.00004   0.13250  -0.25314  -0.13363   0.00000  -0.06606
  12  2  H     s     0.00018   0.00773  -0.12839  -0.06141   0.00000  -1.03668
  13  3  H     s    -0.00004   0.13250   0.25314  -0.13363   0.00000  -0.06606
  14  3  H     s     0.00018   0.00773   0.12839  -0.06141   0.00000  -1.03668

 MO#                       7         8         9        10
 E(a.u.)               0.306     0.868     0.892     0.943
 -------------------------------------------------------------------------------

   1  1  O     s     0.00000   0.00000  -0.02082   0.00000
   2  1  O     s     0.00000   0.00000  -0.02919   0.00000
   3  1  O     s     0.00000   0.00000   0.07792   0.00000
   4  1  O     s     0.00000   0.00000   0.35148   0.00000
   5  1  O     x    -0.40433   0.00000   0.00000  -0.54109
   6  1  O     y     0.00000   0.90257   0.00000   0.00000
   7  1  O     z     0.00000   0.00000  -0.86935   0.00000
   8  1  O     x    -1.04459   0.00000   0.00000   1.71572
   9  1  O     y     0.00000  -1.08435   0.00000   0.00000
  10  1  O     z     0.00000   0.00000   1.28595   0.00000
  11  2  H     s     0.03612   0.00000  -0.16146  -0.57157
  12  2  H     s     1.53386   0.00000  -0.24286  -0.41915
  13  3  H     s    -0.03612   0.00000  -0.16146   0.57157
  14  3  H     s    -1.53386   0.00000  -0.24286   0.41915


 Localized molecular orbitals and the bond labels
 ===============================================================================
 LMO#                      1         2         3         4         5
 E(a.u.)             -20.183    -1.205    -0.502    -0.893    -0.893
 Bond Label            1:(0)     1:(1)     1:(2)    3-1(1)    2-1(1)
 -------------------------------------------------------------------------------

   1  1  O     s    -0.59398  -0.03872   0.00001  -0.03447  -0.03447
   2  1  O     s    -0.48259  -0.09945   0.00001  -0.05810  -0.05811
   3  1  O     s     0.07393   0.46230  -0.00001   0.19699   0.19699
   4  1  O     s     0.07065   0.47858  -0.00001   0.14207   0.14207
   5  1  O     x    -0.00000  -0.00000  -0.00000  -0.40254   0.40254
   6  1  O     y    -0.00001  -0.00001  -0.72768  -0.00000  -0.00000
   7  1  O     z    -0.03597  -0.41776   0.00001   0.34563   0.34563
   8  1  O     x    -0.00000  -0.00000  -0.00000  -0.12646   0.12646
   9  1  O     y    -0.00000  -0.00001  -0.41030  -0.00000  -0.00000
  10  1  O     z    -0.02147  -0.24236   0.00000   0.16833   0.16833
  11  2  H     s     0.00524  -0.02149   0.00000  -0.04685   0.31115
  12  2  H     s    -0.00358  -0.04280   0.00000  -0.05927   0.12230
  13  3  H     s     0.00524  -0.02149   0.00000   0.31115  -0.04685
  14  3  H     s    -0.00358  -0.04280   0.00000   0.12230  -0.05927


 Mulliken population of localized molecular orbitals
 ===============================================================================
 LMO#                      1         2         3         4         5
 E(a.u.)             -20.183    -1.205    -0.502    -0.893    -0.893
 Bond Label            1:(0)     1:(1)     1:(2)    3-1(1)    2-1(1)
 -------------------------------------------------------------------------------

   1         O       1.99983   2.05411   2.00000   1.37041   1.37041
   2         H       0.00008  -0.02706  -0.00000  -0.01748   0.64707
   3         H       0.00008  -0.02706  -0.00000   0.64707  -0.01748


 PARTITIONING OF LMOs INTO GROUPS ($LMOGRP)
 =======================================================================
 LMO#     1  2  3  4  5
 Group#   1  1  1  2  2
 Split    0  0  0  1  1




 Initial guess of orbitals
 ===============================================================================
 ORBITAL#                  1         2         3         4         5         6
 Bond Label            1:(0)     1:(1)     1:(2)   1->2(1)   2->1(1)   1->3(1)
 -------------------------------------------------------------------------------

   1  1  O     s    -0.59398  -0.03872   0.00001  -0.05687   0.00332  -0.03403
   2  1  O     s    -0.48259  -0.09945   0.00001  -0.09208   0.01548  -0.05556
   3  1  O     s     0.07393   0.46230  -0.00001   0.35177  -0.08642   0.22742
   4  1  O     s     0.07065   0.47858  -0.00001   0.18961  -0.08950   0.06422
   5  1  O     x    -0.00000  -0.00000  -0.00000   0.57130   0.00000  -0.77411
   6  1  O     y    -0.00001  -0.00001  -0.72768  -0.00000  -0.00000  -0.00000
   7  1  O     z    -0.03597  -0.41776   0.00001   0.54323   0.07830   0.33126
   8  1  O     x    -0.00000  -0.00000  -0.00000   0.09858   0.00000  -0.20849
   9  1  O     y    -0.00000  -0.00001  -0.41030  -0.00000  -0.00000  -0.00000
  10  1  O     z    -0.02147  -0.24236   0.00000   0.14073   0.04542   0.03833
  11  2  H     s     0.00524  -0.02149   0.00000  -0.00440   0.60989   0.00098
  12  2  H     s    -0.00358  -0.04280   0.00000  -0.00868   0.51052   0.00233
  13  3  H     s     0.00524  -0.02149   0.00000  -0.00440   0.00408   0.00098
  14  3  H     s    -0.00358  -0.04280   0.00000  -0.00868   0.00802   0.00233

 ORBITAL#                  7
 Bond Label          3->1(1)
 -------------------------------------------------------------------------------

   1  1  O     s     0.00332
   2  1  O     s     0.01548
   3  1  O     s    -0.08642
   4  1  O     s    -0.08950
   5  1  O     x     0.00000
   6  1  O     y    -0.00000
   7  1  O     z     0.07830
   8  1  O     x     0.00000
   9  1  O     y    -0.00000
  10  1  O     z     0.04542
  11  2  H     s     0.00408
  12  2  H     s     0.00802
  13  3  H     s     0.60989
  14  3  H     s     0.51052


      GENERAL CONTROLS ($GENCTL)
 ====================================
 Number of electron groups       =    2
 Maximum macro-iterations        =  600
 Energy threshold           = 10**(- 7)
 Restart calculation(0/1/2)      =    0
 Group#                     1  2
 Num. of electrons          6  4
 Num. of spins              0  0
 Num. of orbitals           3  4
 Method#                    1  2

 SYMBOLIC VB STRUCTURE(S) OF GROUP  2
 STR. NO.       RUMER PATTERN  
    1           1  2   3  4
    2           1  1   3  4
    3           3  3   1  2

 CALCULATE INITIAL STRUCTURE COEFFICIENTS

 MAP FILE IS: /home/brian/qchem/gamess/vb2000/MAP/MAP0400t                                    

 VB-ORBITAL OPTIMIZATION OF GROUP  2 ...
 $DPWEIGHT IS            0.100D+08

 $LENHANCE APPLIES WITH   4 CONDITIONS
 GROUP =  2  ITER =  1 CMAX =  0.15000000000000
 GROUP =  2  ITER =  2 CMAX =  0.14886652250877
 GROUP =  2  ITER =  3 CMAX =  0.12005175928243
 GROUP =  2  ITER =  4 CMAX =  0.02021900458201
 GROUP =  2  ITER =  5 CMAX =  0.00189770877857
 GROUP =  2  ITER =  6 CMAX =  0.00115107608293
 GROUP =  2  ITER =  7 CMAX =  0.00084461855422

 ENERGY AND DIFF OF MACROITER    1 =    -76.02844836    -76.02844836

 VB-ORBITAL OPTIMIZATION OF GROUP  2 ...
 GROUP =  2  ITER =  1 CMAX =  0.02890817041930
 GROUP =  2  ITER =  2 CMAX =  0.03383118462595
 GROUP =  2  ITER =  3 CMAX =  0.00111822700296
 GROUP =  2  ITER =  4 CMAX =  0.00018435466098

 ENERGY AND DIFF OF MACROITER    2 =    -76.05194436     -0.02349600

 VB-ORBITAL OPTIMIZATION OF GROUP  2 ...
 GROUP =  2  ITER =  1 CMAX =  0.00279364269189
 GROUP =  2  ITER =  2 CMAX =  0.00108778796650
 GROUP =  2  ITER =  3 CMAX =  0.00002435077509

 ENERGY AND DIFF OF MACROITER    3 =    -76.05208548     -0.00014112

 VB-ORBITAL OPTIMIZATION OF GROUP  2 ...
 GROUP =  2  ITER =  1 CMAX =  0.00209504572370
 GROUP =  2  ITER =  2 CMAX =  0.00224025672994
 GROUP =  2  ITER =  3 CMAX =  0.00003000818786

 ENERGY AND DIFF OF MACROITER    4 =    -76.05155883      0.00052664

 VB-ORBITAL OPTIMIZATION OF GROUP  2 ...
 GROUP =  2  ITER =  1 CMAX =  0.00152373547814
 GROUP =  2  ITER =  2 CMAX =  0.00114552622532
 GROUP =  2  ITER =  3 CMAX =  0.00000493746314

 ENERGY AND DIFF OF MACROITER    5 =    -76.05128177      0.00027707

 VB-ORBITAL OPTIMIZATION OF GROUP  2 ...
 GROUP =  2  ITER =  1 CMAX =  0.00114575898630
 GROUP =  2  ITER =  2 CMAX =  0.00104298490449
 GROUP =  2  ITER =  3 CMAX =  0.00000667027259

 ENERGY AND DIFF OF MACROITER    6 =    -76.05094767      0.00033409

 VB-ORBITAL OPTIMIZATION OF GROUP  2 ...
 GROUP =  2  ITER =  1 CMAX =  0.00123134962239
 GROUP =  2  ITER =  2 CMAX =  0.00100494438939
 GROUP =  2  ITER =  3 CMAX =  0.00000360975428

 ENERGY AND DIFF OF MACROITER    7 =    -76.05066934      0.00027834

 VB-ORBITAL OPTIMIZATION OF GROUP  2 ...
 GROUP =  2  ITER =  1 CMAX =  0.00105403799721
 GROUP =  2  ITER =  2 CMAX =  0.00072640902347

 ENERGY AND DIFF OF MACROITER    8 =    -76.05040244      0.00026690

 VB-ORBITAL OPTIMIZATION OF GROUP  2 ...
 GROUP =  2  ITER =  1 CMAX =  0.00098511359540

 ENERGY AND DIFF OF MACROITER    9 =    -76.05016879      0.00023365

 VB-ORBITAL OPTIMIZATION OF GROUP  2 ...
 GROUP =  2  ITER =  1 CMAX =  0.00115599528651
 GROUP =  2  ITER =  2 CMAX =  0.00077687416306

 ENERGY AND DIFF OF MACROITER   10 =    -76.04993171      0.00023708

 VB-ORBITAL OPTIMIZATION OF GROUP  2 ...
 GROUP =  2  ITER =  1 CMAX =  0.00091636824743

 ENERGY AND DIFF OF MACROITER   11 =    -76.04972336      0.00020835

 VB-ORBITAL OPTIMIZATION OF GROUP  2 ...
 GROUP =  2  ITER =  1 CMAX =  0.00061559239834

 ENERGY AND DIFF OF MACROITER   12 =    -76.04958892      0.00013444

 VB-ORBITAL OPTIMIZATION OF GROUP  2 ...
 GROUP =  2  ITER =  1 CMAX =  0.00043912331569

 ENERGY AND DIFF OF MACROITER   13 =    -76.04957203      0.00001688

 VB-ORBITAL OPTIMIZATION OF GROUP  2 ...
 GROUP =  2  ITER =  1 CMAX =  0.00030395503520

 ENERGY AND DIFF OF MACROITER   14 =    -76.04955369      0.00001835

 VB-ORBITAL OPTIMIZATION OF GROUP  2 ...
 GROUP =  2  ITER =  1 CMAX =  0.00021360965170

 ENERGY AND DIFF OF MACROITER   15 =    -76.04954808      0.00000560

 VB-ORBITAL OPTIMIZATION OF GROUP  2 ...
 GROUP =  2  ITER =  1 CMAX =  0.00013205749473

 ENERGY AND DIFF OF MACROITER   16 =    -76.04954364      0.00000444

 VB-ORBITAL OPTIMIZATION OF GROUP  2 ...
 GROUP =  2  ITER =  1 CMAX =  0.00009822558834

 ENERGY AND DIFF OF MACROITER   17 =    -76.04954184      0.00000180

 VB-ORBITAL OPTIMIZATION OF GROUP  2 ...
 GROUP =  2  ITER =  1 CMAX =  0.00006036986509

 ENERGY AND DIFF OF MACROITER   18 =    -76.04954068      0.00000116

 VB-ORBITAL OPTIMIZATION OF GROUP  2 ...
 GROUP =  2  ITER =  1 CMAX =  0.00004822779806

 ENERGY AND DIFF OF MACROITER   19 =    -76.04954009      0.00000059

 VB-ORBITAL OPTIMIZATION OF GROUP  2 ...
 GROUP =  2  ITER =  1 CMAX =  0.00003080830236

 ENERGY AND DIFF OF MACROITER   20 =    -76.04953976      0.00000033

 VB-ORBITAL OPTIMIZATION OF GROUP  2 ...
 GROUP =  2  ITER =  1 CMAX =  0.00002609204268

 ENERGY AND DIFF OF MACROITER   21 =    -76.04953956      0.00000021

 VB-ORBITAL OPTIMIZATION OF GROUP  2 ...
 GROUP =  2  ITER =  1 CMAX =  0.00001759949808

 ENERGY AND DIFF OF MACROITER   22 =    -76.04953945      0.00000010

 VB-ORBITAL OPTIMIZATION OF GROUP  2 ...
 GROUP =  2  ITER =  1 CMAX =  0.00001539837730

 ENERGY AND DIFF OF MACROITER   23 =    -76.04953937      0.00000008

 VB-ORBITAL OPTIMIZATION OF GROUP  2 ...
 GROUP =  2  ITER =  1 CMAX =  0.00001093122458

 ENERGY AND DIFF OF MACROITER   24 =    -76.04953933      0.00000004

 VB-ORBITAL OPTIMIZATION OF GROUP  2 ...
 GROUP =  2  ITER =  1 CMAX =  0.00243484381363
 GROUP =  2  ITER =  2 CMAX =  0.00041470031029

 ENERGY AND DIFF OF MACROITER   25 =    -76.04939377      0.00014557

 VB-ORBITAL OPTIMIZATION OF GROUP  2 ...
 GROUP =  2  ITER =  1 CMAX =  0.00174853480349
 GROUP =  2  ITER =  2 CMAX =  0.00057402645916

 ENERGY AND DIFF OF MACROITER   26 =    -76.04905454      0.00033923

 VB-ORBITAL OPTIMIZATION OF GROUP  2 ...
 GROUP =  2  ITER =  1 CMAX =  0.00154638462061
 GROUP =  2  ITER =  2 CMAX =  0.00039693917258

 ENERGY AND DIFF OF MACROITER   27 =    -76.04874796      0.00030658

 VB-ORBITAL OPTIMIZATION OF GROUP  2 ...
 GROUP =  2  ITER =  1 CMAX =  0.00142351236217
 GROUP =  2  ITER =  2 CMAX =  0.00038192354100

 ENERGY AND DIFF OF MACROITER   28 =    -76.04844231      0.00030565

 VB-ORBITAL OPTIMIZATION OF GROUP  2 ...
 GROUP =  2  ITER =  1 CMAX =  0.00132764825090
 GROUP =  2  ITER =  2 CMAX =  0.00029382836325

 ENERGY AND DIFF OF MACROITER   29 =    -76.04815856      0.00028375

 VB-ORBITAL OPTIMIZATION OF GROUP  2 ...
 GROUP =  2  ITER =  1 CMAX =  0.00124778760180
 GROUP =  2  ITER =  2 CMAX =  0.00023706177802

 ENERGY AND DIFF OF MACROITER   30 =    -76.04789008      0.00026848

 VB-ORBITAL OPTIMIZATION OF GROUP  2 ...
 GROUP =  2  ITER =  1 CMAX =  0.00117852505843
 GROUP =  2  ITER =  2 CMAX =  0.00018038343830

 ENERGY AND DIFF OF MACROITER   31 =    -76.04763783      0.00025225

 VB-ORBITAL OPTIMIZATION OF GROUP  2 ...
 GROUP =  2  ITER =  1 CMAX =  0.00111699406391
 GROUP =  2  ITER =  2 CMAX =  0.00015069911994

 ENERGY AND DIFF OF MACROITER   32 =    -76.04739935      0.00023847

 VB-ORBITAL OPTIMIZATION OF GROUP  2 ...
 GROUP =  2  ITER =  1 CMAX =  0.00106169093335
 GROUP =  2  ITER =  2 CMAX =  0.00013827951563

 ENERGY AND DIFF OF MACROITER   33 =    -76.04717340      0.00022595

 VB-ORBITAL OPTIMIZATION OF GROUP  2 ...
 GROUP =  2  ITER =  1 CMAX =  0.00101119140582
 GROUP =  2  ITER =  2 CMAX =  0.00012726287359

 ENERGY AND DIFF OF MACROITER   34 =    -76.04695849      0.00021491

 VB-ORBITAL OPTIMIZATION OF GROUP  2 ...
 GROUP =  2  ITER =  1 CMAX =  0.00030391960516

 ENERGY AND DIFF OF MACROITER   35 =    -76.04684751      0.00011099

 VB-ORBITAL OPTIMIZATION OF GROUP  2 ...
 GROUP =  2  ITER =  1 CMAX =  0.00013504010512

 ENERGY AND DIFF OF MACROITER   36 =    -76.04685213     -0.00000463

 VB-ORBITAL OPTIMIZATION OF GROUP  2 ...
 GROUP =  2  ITER =  1 CMAX =  0.00004976719901

 ENERGY AND DIFF OF MACROITER   37 =    -76.04684108      0.00001105

 VB-ORBITAL OPTIMIZATION OF GROUP  2 ...
 GROUP =  2  ITER =  1 CMAX =  0.00003583497834

 ENERGY AND DIFF OF MACROITER   38 =    -76.04684063      0.00000046

 VB-ORBITAL OPTIMIZATION OF GROUP  2 ...
 GROUP =  2  ITER =  1 CMAX =  0.00001912868764

 ENERGY AND DIFF OF MACROITER   39 =    -76.04683845      0.00000217

 VB-ORBITAL OPTIMIZATION OF GROUP  2 ...
 GROUP =  2  ITER =  1 CMAX =  0.00000938974885

 ENERGY AND DIFF OF MACROITER   40 =    -76.04683810      0.00000035

 VB-ORBITAL OPTIMIZATION OF GROUP  2 ...
 GROUP =  2  ITER =  1 CMAX =  0.00000507291290

 ENERGY AND DIFF OF MACROITER   41 =    -76.04683762      0.00000048

 VB-ORBITAL OPTIMIZATION OF GROUP  2 ...
 GROUP =  2  ITER =  1 CMAX =  0.00000299339225

 ENERGY AND DIFF OF MACROITER   42 =    -76.04683749      0.00000013

 VB-ORBITAL OPTIMIZATION OF GROUP  2 ...
 GROUP =  2  ITER =  1 CMAX =  0.00000152002612

 ENERGY AND DIFF OF MACROITER   43 =    -76.04683736      0.00000012

 VB-ORBITAL OPTIMIZATION OF GROUP  2 ...
 GROUP =  2  ITER =  1 CMAX =  0.00000164051534

 ENERGY AND DIFF OF MACROITER   44 =    -76.04683732      0.00000004

 VB-ORBITAL OPTIMIZATION OF GROUP  2 ...
 GROUP =  2  ITER =  1 CMAX =  0.00000108277499

 ENERGY AND DIFF OF MACROITER   45 =    -76.04683728      0.00000004

 VB-ORBITAL OPTIMIZATION OF GROUP  2 ...
 GROUP =  2  ITER =  1 CMAX =  0.00228052746847
 GROUP =  2  ITER =  2 CMAX =  0.00024815615588

 ENERGY AND DIFF OF MACROITER   46 =    -76.04665073      0.00018656

 VB-ORBITAL OPTIMIZATION OF GROUP  2 ...
 GROUP =  2  ITER =  1 CMAX =  0.00184431465824
 GROUP =  2  ITER =  2 CMAX =  0.00018757207622

 ENERGY AND DIFF OF MACROITER   47 =    -76.04626470      0.00038603

 VB-ORBITAL OPTIMIZATION OF GROUP  2 ...
 GROUP =  2  ITER =  1 CMAX =  0.00160166890063
 GROUP =  2  ITER =  2 CMAX =  0.00016411181093

 ENERGY AND DIFF OF MACROITER   48 =    -76.04593406      0.00033063

 VB-ORBITAL OPTIMIZATION OF GROUP  2 ...
 GROUP =  2  ITER =  1 CMAX =  0.00146849405117
 GROUP =  2  ITER =  2 CMAX =  0.00014254896289

 ENERGY AND DIFF OF MACROITER   49 =    -76.04560744      0.00032663

 VB-ORBITAL OPTIMIZATION OF GROUP  2 ...
 GROUP =  2  ITER =  1 CMAX =  0.00135043012258
 GROUP =  2  ITER =  2 CMAX =  0.00012581506970

 ENERGY AND DIFF OF MACROITER   50 =    -76.04530423      0.00030321

 VB-ORBITAL OPTIMIZATION OF GROUP  2 ...
 GROUP =  2  ITER =  1 CMAX =  0.00125580501360
 GROUP =  2  ITER =  2 CMAX =  0.00011163735229

 ENERGY AND DIFF OF MACROITER   51 =    -76.04501654      0.00028769

 VB-ORBITAL OPTIMIZATION OF GROUP  2 ...
 GROUP =  2  ITER =  1 CMAX =  0.00117205400036
 GROUP =  2  ITER =  2 CMAX =  0.00010513786308

 ENERGY AND DIFF OF MACROITER   52 =    -76.04474502      0.00027151

 VB-ORBITAL OPTIMIZATION OF GROUP  2 ...
 GROUP =  2  ITER =  1 CMAX =  0.00109870199929
 GROUP =  2  ITER =  2 CMAX =  0.00011124966147

 ENERGY AND DIFF OF MACROITER   53 =    -76.04448745      0.00025757

 VB-ORBITAL OPTIMIZATION OF GROUP  2 ...
 GROUP =  2  ITER =  1 CMAX =  0.00103289378820
 GROUP =  2  ITER =  2 CMAX =  0.00011534922873

 ENERGY AND DIFF OF MACROITER   54 =    -76.04424275      0.00024470

 VB-ORBITAL OPTIMIZATION OF GROUP  2 ...
 GROUP =  2  ITER =  1 CMAX =  0.00097359315282

 ENERGY AND DIFF OF MACROITER   55 =    -76.04401506      0.00022769

 VB-ORBITAL OPTIMIZATION OF GROUP  2 ...
 GROUP =  2  ITER =  1 CMAX =  0.00027465930349

 ENERGY AND DIFF OF MACROITER   56 =    -76.04389339      0.00012167

 VB-ORBITAL OPTIMIZATION OF GROUP  2 ...
 GROUP =  2  ITER =  1 CMAX =  0.00017990226702

 ENERGY AND DIFF OF MACROITER   57 =    -76.04390287     -0.00000948

 VB-ORBITAL OPTIMIZATION OF GROUP  2 ...
 GROUP =  2  ITER =  1 CMAX =  0.00006972526242

 ENERGY AND DIFF OF MACROITER   58 =    -76.04389604      0.00000683

 VB-ORBITAL OPTIMIZATION OF GROUP  2 ...
 GROUP =  2  ITER =  1 CMAX =  0.00004801135899

 ENERGY AND DIFF OF MACROITER   59 =    -76.04389676     -0.00000072

 VB-ORBITAL OPTIMIZATION OF GROUP  2 ...
 GROUP =  2  ITER =  1 CMAX =  0.00002576500785

 ENERGY AND DIFF OF MACROITER   60 =    -76.04389556      0.00000120

 VB-ORBITAL OPTIMIZATION OF GROUP  2 ...
 GROUP =  2  ITER =  1 CMAX =  0.00002062397909

 ENERGY AND DIFF OF MACROITER   61 =    -76.04389549      0.00000007

 VB-ORBITAL OPTIMIZATION OF GROUP  2 ...
 GROUP =  2  ITER =  1 CMAX =  0.00001403962032

 ENERGY AND DIFF OF MACROITER   62 =    -76.04389521      0.00000028

 VB-ORBITAL OPTIMIZATION OF GROUP  2 ...
 GROUP =  2  ITER =  1 CMAX =  0.00184303530486
 GROUP =  2  ITER =  2 CMAX =  0.00011526714579

 ENERGY AND DIFF OF MACROITER   63 =    -76.04368841      0.00020680

 VB-ORBITAL OPTIMIZATION OF GROUP  2 ...
 GROUP =  2  ITER =  1 CMAX =  0.00168934492013
 GROUP =  2  ITER =  2 CMAX =  0.00013388067102

 ENERGY AND DIFF OF MACROITER   64 =    -76.04326203      0.00042638

 VB-ORBITAL OPTIMIZATION OF GROUP  2 ...
 GROUP =  2  ITER =  1 CMAX =  0.00145659306776
 GROUP =  2  ITER =  2 CMAX =  0.00021230376282

 ENERGY AND DIFF OF MACROITER   65 =    -76.04290037      0.00036166

 VB-ORBITAL OPTIMIZATION OF GROUP  2 ...
 GROUP =  2  ITER =  1 CMAX =  0.00132915694120
 GROUP =  2  ITER =  2 CMAX =  0.00019502975611

 ENERGY AND DIFF OF MACROITER   66 =    -76.04255179      0.00034857

 VB-ORBITAL OPTIMIZATION OF GROUP  2 ...
 GROUP =  2  ITER =  1 CMAX =  0.00120424720211
 GROUP =  2  ITER =  2 CMAX =  0.00019101266801

 ENERGY AND DIFF OF MACROITER   67 =    -76.04223125      0.00032054

 VB-ORBITAL OPTIMIZATION OF GROUP  2 ...
 GROUP =  2  ITER =  1 CMAX =  0.00110565886830
 GROUP =  2  ITER =  2 CMAX =  0.00018017064332

 ENERGY AND DIFF OF MACROITER   68 =    -76.04193083      0.00030042

 VB-ORBITAL OPTIMIZATION OF GROUP  2 ...
 GROUP =  2  ITER =  1 CMAX =  0.00101785574822
 GROUP =  2  ITER =  2 CMAX =  0.00016981123854

 ENERGY AND DIFF OF MACROITER   69 =    -76.04165024      0.00028059

 VB-ORBITAL OPTIMIZATION OF GROUP  2 ...
 GROUP =  2  ITER =  1 CMAX =  0.00094197768283

 ENERGY AND DIFF OF MACROITER   70 =    -76.04139094      0.00025931

 VB-ORBITAL OPTIMIZATION OF GROUP  2 ...
 GROUP =  2  ITER =  1 CMAX =  0.00090690627588

 ENERGY AND DIFF OF MACROITER   71 =    -76.04114370      0.00024724

 VB-ORBITAL OPTIMIZATION OF GROUP  2 ...
 GROUP =  2  ITER =  1 CMAX =  0.00084922767549

 ENERGY AND DIFF OF MACROITER   72 =    -76.04091050      0.00023320

 VB-ORBITAL OPTIMIZATION OF GROUP  2 ...
 GROUP =  2  ITER =  1 CMAX =  0.00042298631090

 ENERGY AND DIFF OF MACROITER   73 =    -76.04078709      0.00012341

 VB-ORBITAL OPTIMIZATION OF GROUP  2 ...
 GROUP =  2  ITER =  1 CMAX =  0.00025691147895

 ENERGY AND DIFF OF MACROITER   74 =    -76.04079239     -0.00000530

 VB-ORBITAL OPTIMIZATION OF GROUP  2 ...
 GROUP =  2  ITER =  1 CMAX =  0.00013202227152

 ENERGY AND DIFF OF MACROITER   75 =    -76.04078773      0.00000466

 VB-ORBITAL OPTIMIZATION OF GROUP  2 ...
 GROUP =  2  ITER =  1 CMAX =  0.00008393795984

 ENERGY AND DIFF OF MACROITER   76 =    -76.04078806     -0.00000033

 VB-ORBITAL OPTIMIZATION OF GROUP  2 ...
 GROUP =  2  ITER =  1 CMAX =  0.00004984371427

 ENERGY AND DIFF OF MACROITER   77 =    -76.04078722      0.00000084

 VB-ORBITAL OPTIMIZATION OF GROUP  2 ...
 GROUP =  2  ITER =  1 CMAX =  0.00003357644454

 ENERGY AND DIFF OF MACROITER   78 =    -76.04078711      0.00000012

 VB-ORBITAL OPTIMIZATION OF GROUP  2 ...
 GROUP =  2  ITER =  1 CMAX =  0.00002177301782

 ENERGY AND DIFF OF MACROITER   79 =    -76.04078689      0.00000022

 VB-ORBITAL OPTIMIZATION OF GROUP  2 ...
 GROUP =  2  ITER =  1 CMAX =  0.00001538699491

 ENERGY AND DIFF OF MACROITER   80 =    -76.04078680      0.00000009

 VB-ORBITAL OPTIMIZATION OF GROUP  2 ...
 GROUP =  2  ITER =  1 CMAX =  0.00001059564106

 ENERGY AND DIFF OF MACROITER   81 =    -76.04078672      0.00000008

 VB-ORBITAL OPTIMIZATION OF GROUP  2 ...
 GROUP =  2  ITER =  1 CMAX =  0.00129520530478
 GROUP =  2  ITER =  2 CMAX =  0.00005406579984

 ENERGY AND DIFF OF MACROITER   82 =    -76.04059376      0.00019296

 VB-ORBITAL OPTIMIZATION OF GROUP  2 ...
 GROUP =  2  ITER =  1 CMAX =  0.00131547265898
 GROUP =  2  ITER =  2 CMAX =  0.00013639645647

 ENERGY AND DIFF OF MACROITER   83 =    -76.04018773      0.00040603

 VB-ORBITAL OPTIMIZATION OF GROUP  2 ...
 GROUP =  2  ITER =  1 CMAX =  0.00113807941355
 GROUP =  2  ITER =  2 CMAX =  0.00017493268410

 ENERGY AND DIFF OF MACROITER   84 =    -76.03984067      0.00034706

 VB-ORBITAL OPTIMIZATION OF GROUP  2 ...
 GROUP =  2  ITER =  1 CMAX =  0.00103310547978
 GROUP =  2  ITER =  2 CMAX =  0.00016573158044

 ENERGY AND DIFF OF MACROITER   85 =    -76.03951709      0.00032357

 VB-ORBITAL OPTIMIZATION OF GROUP  2 ...
 GROUP =  2  ITER =  1 CMAX =  0.00092457542412

 ENERGY AND DIFF OF MACROITER   86 =    -76.03922711      0.00028998

 VB-ORBITAL OPTIMIZATION OF GROUP  2 ...
 GROUP =  2  ITER =  1 CMAX =  0.00085736272628

 ENERGY AND DIFF OF MACROITER   87 =    -76.03895822      0.00026889

 VB-ORBITAL OPTIMIZATION OF GROUP  2 ...
 GROUP =  2  ITER =  1 CMAX =  0.00078205843925

 ENERGY AND DIFF OF MACROITER   88 =    -76.03871099      0.00024723

 VB-ORBITAL OPTIMIZATION OF GROUP  2 ...
 GROUP =  2  ITER =  1 CMAX =  0.00071510486664

 ENERGY AND DIFF OF MACROITER   89 =    -76.03848272      0.00022827

 VB-ORBITAL OPTIMIZATION OF GROUP  2 ...
 GROUP =  2  ITER =  1 CMAX =  0.00065594681769

 ENERGY AND DIFF OF MACROITER   90 =    -76.03827145      0.00021127

 VB-ORBITAL OPTIMIZATION OF GROUP  2 ...
 GROUP =  2  ITER =  1 CMAX =  0.00060379094267

 ENERGY AND DIFF OF MACROITER   91 =    -76.03807530      0.00019615

 VB-ORBITAL OPTIMIZATION OF GROUP  2 ...
 GROUP =  2  ITER =  1 CMAX =  0.00035105905360

 ENERGY AND DIFF OF MACROITER   92 =    -76.03796953      0.00010578

 VB-ORBITAL OPTIMIZATION OF GROUP  2 ...
 GROUP =  2  ITER =  1 CMAX =  0.00021128656507

 ENERGY AND DIFF OF MACROITER   93 =    -76.03797005     -0.00000052

 VB-ORBITAL OPTIMIZATION OF GROUP  2 ...
 GROUP =  2  ITER =  1 CMAX =  0.00013077418915

 ENERGY AND DIFF OF MACROITER   94 =    -76.03796698      0.00000307

 VB-ORBITAL OPTIMIZATION OF GROUP  2 ...
 GROUP =  2  ITER =  1 CMAX =  0.00008492698229

 ENERGY AND DIFF OF MACROITER   95 =    -76.03796665      0.00000033

 VB-ORBITAL OPTIMIZATION OF GROUP  2 ...
 GROUP =  2  ITER =  1 CMAX =  0.00005837733971

 ENERGY AND DIFF OF MACROITER   96 =    -76.03796590      0.00000075

 VB-ORBITAL OPTIMIZATION OF GROUP  2 ...
 GROUP =  2  ITER =  1 CMAX =  0.00003964271296

 ENERGY AND DIFF OF MACROITER   97 =    -76.03796559      0.00000031

 VB-ORBITAL OPTIMIZATION OF GROUP  2 ...
 GROUP =  2  ITER =  1 CMAX =  0.00002812175778

 ENERGY AND DIFF OF MACROITER   98 =    -76.03796530      0.00000029

 VB-ORBITAL OPTIMIZATION OF GROUP  2 ...
 GROUP =  2  ITER =  1 CMAX =  0.00001958456257

 ENERGY AND DIFF OF MACROITER   99 =    -76.03796513      0.00000017

 VB-ORBITAL OPTIMIZATION OF GROUP  2 ...
 GROUP =  2  ITER =  1 CMAX =  0.00001403800570

 ENERGY AND DIFF OF MACROITER  100 =    -76.03796499      0.00000013

 VB-ORBITAL OPTIMIZATION OF GROUP  2 ...
 GROUP =  2  ITER =  1 CMAX =  0.00000993028363

 ENERGY AND DIFF OF MACROITER  101 =    -76.03796490      0.00000009

 VB-ORBITAL OPTIMIZATION OF GROUP  2 ...
 GROUP =  2  ITER =  1 CMAX =  0.00000714972929

 ENERGY AND DIFF OF MACROITER  102 =    -76.03796484      0.00000007

 VB-ORBITAL OPTIMIZATION OF GROUP  2 ...
 GROUP =  2  ITER =  1 CMAX =  0.00081002451701

 ENERGY AND DIFF OF MACROITER  103 =    -76.03781666      0.00014817

 VB-ORBITAL OPTIMIZATION OF GROUP  2 ...
 GROUP =  2  ITER =  1 CMAX =  0.00088693255007

 ENERGY AND DIFF OF MACROITER  104 =    -76.03749480      0.00032186

 VB-ORBITAL OPTIMIZATION OF GROUP  2 ...
 GROUP =  2  ITER =  1 CMAX =  0.00077448602171

 ENERGY AND DIFF OF MACROITER  105 =    -76.03721852      0.00027628

 VB-ORBITAL OPTIMIZATION OF GROUP  2 ...
 GROUP =  2  ITER =  1 CMAX =  0.00069914423332

 ENERGY AND DIFF OF MACROITER  106 =    -76.03696829      0.00025024

 VB-ORBITAL OPTIMIZATION OF GROUP  2 ...
 GROUP =  2  ITER =  1 CMAX =  0.00062039756096

 ENERGY AND DIFF OF MACROITER  107 =    -76.03674555      0.00022274

 VB-ORBITAL OPTIMIZATION OF GROUP  2 ...
 GROUP =  2  ITER =  1 CMAX =  0.00055797196129

 ENERGY AND DIFF OF MACROITER  108 =    -76.03654454      0.00020100

 VB-ORBITAL OPTIMIZATION OF GROUP  2 ...
 GROUP =  2  ITER =  1 CMAX =  0.00050274381405

 ENERGY AND DIFF OF MACROITER  109 =    -76.03636286      0.00018168

 VB-ORBITAL OPTIMIZATION OF GROUP  2 ...
 GROUP =  2  ITER =  1 CMAX =  0.00045584191364

 ENERGY AND DIFF OF MACROITER  110 =    -76.03619765      0.00016521

 VB-ORBITAL OPTIMIZATION OF GROUP  2 ...
 GROUP =  2  ITER =  1 CMAX =  0.00041490104650

 ENERGY AND DIFF OF MACROITER  111 =    -76.03604685      0.00015080

 VB-ORBITAL OPTIMIZATION OF GROUP  2 ...
 GROUP =  2  ITER =  1 CMAX =  0.00037927488471

 ENERGY AND DIFF OF MACROITER  112 =    -76.03590863      0.00013823

 VB-ORBITAL OPTIMIZATION OF GROUP  2 ...
 GROUP =  2  ITER =  1 CMAX =  0.00021924679510

 ENERGY AND DIFF OF MACROITER  113 =    -76.03583312      0.00007550

 VB-ORBITAL OPTIMIZATION OF GROUP  2 ...
 GROUP =  2  ITER =  1 CMAX =  0.00012915782371

 ENERGY AND DIFF OF MACROITER  114 =    -76.03583209      0.00000103

 VB-ORBITAL OPTIMIZATION OF GROUP  2 ...
 GROUP =  2  ITER =  1 CMAX =  0.00009731542624

 ENERGY AND DIFF OF MACROITER  115 =    -76.03583032      0.00000176

 VB-ORBITAL OPTIMIZATION OF GROUP  2 ...
 GROUP =  2  ITER =  1 CMAX =  0.00006871424626

 ENERGY AND DIFF OF MACROITER  116 =    -76.03582987      0.00000046

 VB-ORBITAL OPTIMIZATION OF GROUP  2 ...
 GROUP =  2  ITER =  1 CMAX =  0.00005504968132

 ENERGY AND DIFF OF MACROITER  117 =    -76.03582926      0.00000061

 VB-ORBITAL OPTIMIZATION OF GROUP  2 ...
 GROUP =  2  ITER =  1 CMAX =  0.00004237715918

 ENERGY AND DIFF OF MACROITER  118 =    -76.03582889      0.00000038

 VB-ORBITAL OPTIMIZATION OF GROUP  2 ...
 GROUP =  2  ITER =  1 CMAX =  0.00003424254597

 ENERGY AND DIFF OF MACROITER  119 =    -76.03582854      0.00000035

 VB-ORBITAL OPTIMIZATION OF GROUP  2 ...
 GROUP =  2  ITER =  1 CMAX =  0.00002729268724

 ENERGY AND DIFF OF MACROITER  120 =    -76.03582827      0.00000027

 VB-ORBITAL OPTIMIZATION OF GROUP  2 ...
 GROUP =  2  ITER =  1 CMAX =  0.00002214042423

 ENERGY AND DIFF OF MACROITER  121 =    -76.03582805      0.00000022

 VB-ORBITAL OPTIMIZATION OF GROUP  2 ...
 GROUP =  2  ITER =  1 CMAX =  0.00001790257238

 ENERGY AND DIFF OF MACROITER  122 =    -76.03582787      0.00000018

 VB-ORBITAL OPTIMIZATION OF GROUP  2 ...
 GROUP =  2  ITER =  1 CMAX =  0.00001457014898

 ENERGY AND DIFF OF MACROITER  123 =    -76.03582772      0.00000015

 VB-ORBITAL OPTIMIZATION OF GROUP  2 ...
 GROUP =  2  ITER =  1 CMAX =  0.00001185520039

 ENERGY AND DIFF OF MACROITER  124 =    -76.03582760      0.00000012

 VB-ORBITAL OPTIMIZATION OF GROUP  2 ...
 GROUP =  2  ITER =  1 CMAX =  0.00000967051447

 ENERGY AND DIFF OF MACROITER  125 =    -76.03582750      0.00000010

 VB-ORBITAL OPTIMIZATION OF GROUP  2 ...
 GROUP =  2  ITER =  1 CMAX =  0.00000789126915

 ENERGY AND DIFF OF MACROITER  126 =    -76.03582742      0.00000008

 VB-ORBITAL OPTIMIZATION OF GROUP  2 ...
 GROUP =  2  ITER =  1 CMAX =  0.00000644623163

 ENERGY AND DIFF OF MACROITER  127 =    -76.03582735      0.00000007

 VB-ORBITAL OPTIMIZATION OF GROUP  2 ...
 GROUP =  2  ITER =  1 CMAX =  0.00000526762611

 ENERGY AND DIFF OF MACROITER  128 =    -76.03582729      0.00000006

 VB-ORBITAL OPTIMIZATION OF GROUP  2 ...
 GROUP =  2  ITER =  1 CMAX =  0.00000430660211

 ENERGY AND DIFF OF MACROITER  129 =    -76.03582725      0.00000005

 VB-ORBITAL OPTIMIZATION OF GROUP  2 ...
 GROUP =  2  ITER =  1 CMAX =  0.00000352171330

 ENERGY AND DIFF OF MACROITER  130 =    -76.03582721      0.00000004

 VB-ORBITAL OPTIMIZATION OF GROUP  2 ...
 GROUP =  2  ITER =  1 CMAX =  0.00000288053965

 ENERGY AND DIFF OF MACROITER  131 =    -76.03582718      0.00000003

 VB-ORBITAL OPTIMIZATION OF GROUP  2 ...
 GROUP =  2  ITER =  1 CMAX =  0.00000235640026

 ENERGY AND DIFF OF MACROITER  132 =    -76.03582715      0.00000003

 VB-ORBITAL OPTIMIZATION OF GROUP  2 ...
 GROUP =  2  ITER =  1 CMAX =  0.00000192784216

 ENERGY AND DIFF OF MACROITER  133 =    -76.03582713      0.00000002

 VB-ORBITAL OPTIMIZATION OF GROUP  2 ...
 GROUP =  2  ITER =  1 CMAX =  0.00000157732123

 ENERGY AND DIFF OF MACROITER  134 =    -76.03582712      0.00000002

 VB-ORBITAL OPTIMIZATION OF GROUP  2 ...
 GROUP =  2  ITER =  1 CMAX =  0.00000129058052

 ENERGY AND DIFF OF MACROITER  135 =    -76.03582710      0.00000001

 VB-ORBITAL OPTIMIZATION OF GROUP  2 ...
 GROUP =  2  ITER =  1 CMAX =  0.00000105597978

 ENERGY AND DIFF OF MACROITER  136 =    -76.03582709      0.00000001

 VB-ORBITAL OPTIMIZATION OF GROUP  2 ...
 GROUP =  2  ITER =  1 CMAX =  0.00000086402197

 ENERGY AND DIFF OF MACROITER  137 =    -76.03582708      0.00000001

 VB-ORBITAL OPTIMIZATION OF GROUP  2 ...
 GROUP =  2  ITER =  1 CMAX =  0.00000070697380

 ENERGY AND DIFF OF MACROITER  138 =    -76.03582708      0.00000001

 VB-ORBITAL OPTIMIZATION OF GROUP  2 ...
 GROUP =  2  ITER =  1 CMAX =  0.00046345227195

 ENERGY AND DIFF OF MACROITER  139 =    -76.03572788      0.00009919

 VB-ORBITAL OPTIMIZATION OF GROUP  2 ...
 GROUP =  2  ITER =  1 CMAX =  0.00051880373155

 ENERGY AND DIFF OF MACROITER  140 =    -76.03551080      0.00021709

 VB-ORBITAL OPTIMIZATION OF GROUP  2 ...
 GROUP =  2  ITER =  1 CMAX =  0.00045321688036

 ENERGY AND DIFF OF MACROITER  141 =    -76.03532477      0.00018603

 VB-ORBITAL OPTIMIZATION OF GROUP  2 ...
 GROUP =  2  ITER =  1 CMAX =  0.00040614617489

 ENERGY AND DIFF OF MACROITER  142 =    -76.03515995      0.00016481

 VB-ORBITAL OPTIMIZATION OF GROUP  2 ...
 GROUP =  2  ITER =  1 CMAX =  0.00035819079203

 ENERGY AND DIFF OF MACROITER  143 =    -76.03501516      0.00014479

 VB-ORBITAL OPTIMIZATION OF GROUP  2 ...
 GROUP =  2  ITER =  1 CMAX =  0.00032041533955

 ENERGY AND DIFF OF MACROITER  144 =    -76.03488632      0.00012884

 VB-ORBITAL OPTIMIZATION OF GROUP  2 ...
 GROUP =  2  ITER =  1 CMAX =  0.00028733942529

 ENERGY AND DIFF OF MACROITER  145 =    -76.03477124      0.00011508

 VB-ORBITAL OPTIMIZATION OF GROUP  2 ...
 GROUP =  2  ITER =  1 CMAX =  0.00025949795116

 ENERGY AND DIFF OF MACROITER  146 =    -76.03466773      0.00010352

 VB-ORBITAL OPTIMIZATION OF GROUP  2 ...
 GROUP =  2  ITER =  1 CMAX =  0.00023536327996

 ENERGY AND DIFF OF MACROITER  147 =    -76.03457416      0.00009356

 VB-ORBITAL OPTIMIZATION OF GROUP  2 ...
 GROUP =  2  ITER =  1 CMAX =  0.00021449618430

 ENERGY AND DIFF OF MACROITER  148 =    -76.03448917      0.00008499

 VB-ORBITAL OPTIMIZATION OF GROUP  2 ...
 GROUP =  2  ITER =  1 CMAX =  0.00011328341398

 ENERGY AND DIFF OF MACROITER  149 =    -76.03444236      0.00004681

 VB-ORBITAL OPTIMIZATION OF GROUP  2 ...
 GROUP =  2  ITER =  1 CMAX =  0.00005728033579

 ENERGY AND DIFF OF MACROITER  150 =    -76.03444156      0.00000080

 VB-ORBITAL OPTIMIZATION OF GROUP  2 ...
 GROUP =  2  ITER =  1 CMAX =  0.00005437443681

 ENERGY AND DIFF OF MACROITER  151 =    -76.03444072      0.00000084

 VB-ORBITAL OPTIMIZATION OF GROUP  2 ...
 GROUP =  2  ITER =  1 CMAX =  0.00004179460549

 ENERGY AND DIFF OF MACROITER  152 =    -76.03444051      0.00000022

 VB-ORBITAL OPTIMIZATION OF GROUP  2 ...
 GROUP =  2  ITER =  1 CMAX =  0.00003790623684

 ENERGY AND DIFF OF MACROITER  153 =    -76.03444020      0.00000030

 VB-ORBITAL OPTIMIZATION OF GROUP  2 ...
 GROUP =  2  ITER =  1 CMAX =  0.00003268232065

 ENERGY AND DIFF OF MACROITER  154 =    -76.03443999      0.00000021

 VB-ORBITAL OPTIMIZATION OF GROUP  2 ...
 GROUP =  2  ITER =  1 CMAX =  0.00002918926184

 ENERGY AND DIFF OF MACROITER  155 =    -76.03443978      0.00000021

 VB-ORBITAL OPTIMIZATION OF GROUP  2 ...
 GROUP =  2  ITER =  1 CMAX =  0.00002580520090

 ENERGY AND DIFF OF MACROITER  156 =    -76.03443961      0.00000018

 VB-ORBITAL OPTIMIZATION OF GROUP  2 ...
 GROUP =  2  ITER =  1 CMAX =  0.00002298325685

 ENERGY AND DIFF OF MACROITER  157 =    -76.03443944      0.00000016

 VB-ORBITAL OPTIMIZATION OF GROUP  2 ...
 GROUP =  2  ITER =  1 CMAX =  0.00002043171151

 ENERGY AND DIFF OF MACROITER  158 =    -76.03443930      0.00000015

 VB-ORBITAL OPTIMIZATION OF GROUP  2 ...
 GROUP =  2  ITER =  1 CMAX =  0.00001819222363

 ENERGY AND DIFF OF MACROITER  159 =    -76.03443917      0.00000013

 VB-ORBITAL OPTIMIZATION OF GROUP  2 ...
 GROUP =  2  ITER =  1 CMAX =  0.00001619312872

 ENERGY AND DIFF OF MACROITER  160 =    -76.03443905      0.00000012

 VB-ORBITAL OPTIMIZATION OF GROUP  2 ...
 GROUP =  2  ITER =  1 CMAX =  0.00001441872315

 ENERGY AND DIFF OF MACROITER  161 =    -76.03443894      0.00000011

 VB-ORBITAL OPTIMIZATION OF GROUP  2 ...
 GROUP =  2  ITER =  1 CMAX =  0.00001283823571

 ENERGY AND DIFF OF MACROITER  162 =    -76.03443885      0.00000010

 VB-ORBITAL OPTIMIZATION OF GROUP  2 ...
 GROUP =  2  ITER =  1 CMAX =  0.00001143196292

 ENERGY AND DIFF OF MACROITER  163 =    -76.03443876      0.00000009

 VB-ORBITAL OPTIMIZATION OF GROUP  2 ...
 GROUP =  2  ITER =  1 CMAX =  0.00001017978363

 ENERGY AND DIFF OF MACROITER  164 =    -76.03443869      0.00000008

 VB-ORBITAL OPTIMIZATION OF GROUP  2 ...
 GROUP =  2  ITER =  1 CMAX =  0.00000906500991

 ENERGY AND DIFF OF MACROITER  165 =    -76.03443862      0.00000007

 VB-ORBITAL OPTIMIZATION OF GROUP  2 ...
 GROUP =  2  ITER =  1 CMAX =  0.00000807238722

 ENERGY AND DIFF OF MACROITER  166 =    -76.03443856      0.00000006

 VB-ORBITAL OPTIMIZATION OF GROUP  2 ...
 GROUP =  2  ITER =  1 CMAX =  0.00000718853045

 ENERGY AND DIFF OF MACROITER  167 =    -76.03443850      0.00000006

 VB-ORBITAL OPTIMIZATION OF GROUP  2 ...
 GROUP =  2  ITER =  1 CMAX =  0.00000640146416

 ENERGY AND DIFF OF MACROITER  168 =    -76.03443845      0.00000005

 VB-ORBITAL OPTIMIZATION OF GROUP  2 ...
 GROUP =  2  ITER =  1 CMAX =  0.00000570056180

 ENERGY AND DIFF OF MACROITER  169 =    -76.03443841      0.00000004

 VB-ORBITAL OPTIMIZATION OF GROUP  2 ...
 GROUP =  2  ITER =  1 CMAX =  0.00000507635808

 ENERGY AND DIFF OF MACROITER  170 =    -76.03443837      0.00000004

 VB-ORBITAL OPTIMIZATION OF GROUP  2 ...
 GROUP =  2  ITER =  1 CMAX =  0.00000452043600

 ENERGY AND DIFF OF MACROITER  171 =    -76.03443833      0.00000004

 VB-ORBITAL OPTIMIZATION OF GROUP  2 ...
 GROUP =  2  ITER =  1 CMAX =  0.00000402530564

 ENERGY AND DIFF OF MACROITER  172 =    -76.03443830      0.00000003

 VB-ORBITAL OPTIMIZATION OF GROUP  2 ...
 GROUP =  2  ITER =  1 CMAX =  0.00000358430345

 ENERGY AND DIFF OF MACROITER  173 =    -76.03443827      0.00000003

 VB-ORBITAL OPTIMIZATION OF GROUP  2 ...
 GROUP =  2  ITER =  1 CMAX =  0.00000319149700

 ENERGY AND DIFF OF MACROITER  174 =    -76.03443825      0.00000003

 VB-ORBITAL OPTIMIZATION OF GROUP  2 ...
 GROUP =  2  ITER =  1 CMAX =  0.00000284161795

 ENERGY AND DIFF OF MACROITER  175 =    -76.03443822      0.00000002

 VB-ORBITAL OPTIMIZATION OF GROUP  2 ...
 GROUP =  2  ITER =  1 CMAX =  0.00000252996835

 ENERGY AND DIFF OF MACROITER  176 =    -76.03443820      0.00000002

 VB-ORBITAL OPTIMIZATION OF GROUP  2 ...
 GROUP =  2  ITER =  1 CMAX =  0.00000225236605

 ENERGY AND DIFF OF MACROITER  177 =    -76.03443819      0.00000002

 VB-ORBITAL OPTIMIZATION OF GROUP  2 ...
 GROUP =  2  ITER =  1 CMAX =  0.00000200509212

 ENERGY AND DIFF OF MACROITER  178 =    -76.03443817      0.00000002

 VB-ORBITAL OPTIMIZATION OF GROUP  2 ...
 GROUP =  2  ITER =  1 CMAX =  0.00000178483507

 ENERGY AND DIFF OF MACROITER  179 =    -76.03443815      0.00000001

 VB-ORBITAL OPTIMIZATION OF GROUP  2 ...
 GROUP =  2  ITER =  1 CMAX =  0.00000158864599

 ENERGY AND DIFF OF MACROITER  180 =    -76.03443814      0.00000001

 VB-ORBITAL OPTIMIZATION OF GROUP  2 ...
 GROUP =  2  ITER =  1 CMAX =  0.00000141389878

 ENERGY AND DIFF OF MACROITER  181 =    -76.03443813      0.00000001

 VB-ORBITAL OPTIMIZATION OF GROUP  2 ...
 GROUP =  2  ITER =  1 CMAX =  0.00000125825488

 ENERGY AND DIFF OF MACROITER  182 =    -76.03443812      0.00000001

 VB-ORBITAL OPTIMIZATION OF GROUP  2 ...
 GROUP =  2  ITER =  1 CMAX =  0.00000111963090

 ENERGY AND DIFF OF MACROITER  183 =    -76.03443811      0.00000001

 VB-ORBITAL OPTIMIZATION OF GROUP  2 ...
 GROUP =  2  ITER =  1 CMAX =  0.00000099617106

 ENERGY AND DIFF OF MACROITER  184 =    -76.03443810      0.00000001

 VB-ORBITAL OPTIMIZATION OF GROUP  2 ...
 GROUP =  2  ITER =  1 CMAX =  0.00025058951196

 ENERGY AND DIFF OF MACROITER  185 =    -76.03437923      0.00005887

 VB-ORBITAL OPTIMIZATION OF GROUP  2 ...
 GROUP =  2  ITER =  1 CMAX =  0.00028168026871

 ENERGY AND DIFF OF MACROITER  186 =    -76.03424900      0.00013023

 VB-ORBITAL OPTIMIZATION OF GROUP  2 ...
 GROUP =  2  ITER =  1 CMAX =  0.00024511590477

 ENERGY AND DIFF OF MACROITER  187 =    -76.03413810      0.00011091

 VB-ORBITAL OPTIMIZATION OF GROUP  2 ...
 GROUP =  2  ITER =  1 CMAX =  0.00021791249726

 ENERGY AND DIFF OF MACROITER  188 =    -76.03404117      0.00009692

 VB-ORBITAL OPTIMIZATION OF GROUP  2 ...
 GROUP =  2  ITER =  1 CMAX =  0.00019090126945

 ENERGY AND DIFF OF MACROITER  189 =    -76.03395683      0.00008435

 VB-ORBITAL OPTIMIZATION OF GROUP  2 ...
 GROUP =  2  ITER =  1 CMAX =  0.00016987019938

 ENERGY AND DIFF OF MACROITER  190 =    -76.03388246      0.00007436

 VB-ORBITAL OPTIMIZATION OF GROUP  2 ...
 GROUP =  2  ITER =  1 CMAX =  0.00015165350107

 ENERGY AND DIFF OF MACROITER  191 =    -76.03381655      0.00006591

 VB-ORBITAL OPTIMIZATION OF GROUP  2 ...
 GROUP =  2  ITER =  1 CMAX =  0.00013648177390

 ENERGY AND DIFF OF MACROITER  192 =    -76.03375768      0.00005887

 VB-ORBITAL OPTIMIZATION OF GROUP  2 ...
 GROUP =  2  ITER =  1 CMAX =  0.00012343176919

 ENERGY AND DIFF OF MACROITER  193 =    -76.03370481      0.00005287

 VB-ORBITAL OPTIMIZATION OF GROUP  2 ...
 GROUP =  2  ITER =  1 CMAX =  0.00011223329129

 ENERGY AND DIFF OF MACROITER  194 =    -76.03365705      0.00004776

 VB-ORBITAL OPTIMIZATION OF GROUP  2 ...
 GROUP =  2  ITER =  1 CMAX =  0.00005016088367

 ENERGY AND DIFF OF MACROITER  195 =    -76.03363061      0.00002644

 VB-ORBITAL OPTIMIZATION OF GROUP  2 ...
 GROUP =  2  ITER =  1 CMAX =  0.00001546209598

 ENERGY AND DIFF OF MACROITER  196 =    -76.03363024      0.00000037

 VB-ORBITAL OPTIMIZATION OF GROUP  2 ...
 GROUP =  2  ITER =  1 CMAX =  0.00002000101505

 ENERGY AND DIFF OF MACROITER  197 =    -76.03362986      0.00000038

 VB-ORBITAL OPTIMIZATION OF GROUP  2 ...
 GROUP =  2  ITER =  1 CMAX =  0.00001665163357

 ENERGY AND DIFF OF MACROITER  198 =    -76.03362980      0.00000006

 VB-ORBITAL OPTIMIZATION OF GROUP  2 ...
 GROUP =  2  ITER =  1 CMAX =  0.00001730728303

 ENERGY AND DIFF OF MACROITER  199 =    -76.03362970      0.00000010

 VB-ORBITAL OPTIMIZATION OF GROUP  2 ...
 GROUP =  2  ITER =  1 CMAX =  0.00001648163495

 ENERGY AND DIFF OF MACROITER  200 =    -76.03362963      0.00000006

 VB-ORBITAL OPTIMIZATION OF GROUP  2 ...
 GROUP =  2  ITER =  1 CMAX =  0.00001602354184

 ENERGY AND DIFF OF MACROITER  201 =    -76.03362956      0.00000007

 VB-ORBITAL OPTIMIZATION OF GROUP  2 ...
 GROUP =  2  ITER =  1 CMAX =  0.00001527379210

 ENERGY AND DIFF OF MACROITER  202 =    -76.03362950      0.00000006

 VB-ORBITAL OPTIMIZATION OF GROUP  2 ...
 GROUP =  2  ITER =  1 CMAX =  0.00001454523307

 ENERGY AND DIFF OF MACROITER  203 =    -76.03362944      0.00000006

 VB-ORBITAL OPTIMIZATION OF GROUP  2 ...
 GROUP =  2  ITER =  1 CMAX =  0.00001376544884

 ENERGY AND DIFF OF MACROITER  204 =    -76.03362939      0.00000005

 VB-ORBITAL OPTIMIZATION OF GROUP  2 ...
 GROUP =  2  ITER =  1 CMAX =  0.00001299979969

 ENERGY AND DIFF OF MACROITER  205 =    -76.03362934      0.00000005

 VB-ORBITAL OPTIMIZATION OF GROUP  2 ...
 GROUP =  2  ITER =  1 CMAX =  0.00001224679604

 ENERGY AND DIFF OF MACROITER  206 =    -76.03362929      0.00000005

 VB-ORBITAL OPTIMIZATION OF GROUP  2 ...
 GROUP =  2  ITER =  1 CMAX =  0.00001152259499

 ENERGY AND DIFF OF MACROITER  207 =    -76.03362924      0.00000005

 VB-ORBITAL OPTIMIZATION OF GROUP  2 ...
 GROUP =  2  ITER =  1 CMAX =  0.00001082982815

 ENERGY AND DIFF OF MACROITER  208 =    -76.03362920      0.00000004

 VB-ORBITAL OPTIMIZATION OF GROUP  2 ...
 GROUP =  2  ITER =  1 CMAX =  0.00001017222670

 ENERGY AND DIFF OF MACROITER  209 =    -76.03362916      0.00000004

 VB-ORBITAL OPTIMIZATION OF GROUP  2 ...
 GROUP =  2  ITER =  1 CMAX =  0.00000955026889

 ENERGY AND DIFF OF MACROITER  210 =    -76.03362912      0.00000004

 VB-ORBITAL OPTIMIZATION OF GROUP  2 ...
 GROUP =  2  ITER =  1 CMAX =  0.00000896388399

 ENERGY AND DIFF OF MACROITER  211 =    -76.03362908      0.00000004

 VB-ORBITAL OPTIMIZATION OF GROUP  2 ...
 GROUP =  2  ITER =  1 CMAX =  0.00000841206487

 ENERGY AND DIFF OF MACROITER  212 =    -76.03362904      0.00000004

 VB-ORBITAL OPTIMIZATION OF GROUP  2 ...
 GROUP =  2  ITER =  1 CMAX =  0.00000789348577

 ENERGY AND DIFF OF MACROITER  213 =    -76.03362901      0.00000003

 VB-ORBITAL OPTIMIZATION OF GROUP  2 ...
 GROUP =  2  ITER =  1 CMAX =  0.00000740656110

 ENERGY AND DIFF OF MACROITER  214 =    -76.03362898      0.00000003

 VB-ORBITAL OPTIMIZATION OF GROUP  2 ...
 GROUP =  2  ITER =  1 CMAX =  0.00000694962040

 ENERGY AND DIFF OF MACROITER  215 =    -76.03362895      0.00000003

 VB-ORBITAL OPTIMIZATION OF GROUP  2 ...
 GROUP =  2  ITER =  1 CMAX =  0.00000652096563

 ENERGY AND DIFF OF MACROITER  216 =    -76.03362892      0.00000003

 VB-ORBITAL OPTIMIZATION OF GROUP  2 ...
 GROUP =  2  ITER =  1 CMAX =  0.00000611892725

 ENERGY AND DIFF OF MACROITER  217 =    -76.03362889      0.00000003

 VB-ORBITAL OPTIMIZATION OF GROUP  2 ...
 GROUP =  2  ITER =  1 CMAX =  0.00000574189025

 ENERGY AND DIFF OF MACROITER  218 =    -76.03362887      0.00000003

 VB-ORBITAL OPTIMIZATION OF GROUP  2 ...
 GROUP =  2  ITER =  1 CMAX =  0.00000538830759

 ENERGY AND DIFF OF MACROITER  219 =    -76.03362884      0.00000002

 VB-ORBITAL OPTIMIZATION OF GROUP  2 ...
 GROUP =  2  ITER =  1 CMAX =  0.00000505672513

 ENERGY AND DIFF OF MACROITER  220 =    -76.03362882      0.00000002

 VB-ORBITAL OPTIMIZATION OF GROUP  2 ...
 GROUP =  2  ITER =  1 CMAX =  0.00000474575284

 ENERGY AND DIFF OF MACROITER  221 =    -76.03362880      0.00000002

 VB-ORBITAL OPTIMIZATION OF GROUP  2 ...
 GROUP =  2  ITER =  1 CMAX =  0.00000445409272

 ENERGY AND DIFF OF MACROITER  222 =    -76.03362878      0.00000002

 VB-ORBITAL OPTIMIZATION OF GROUP  2 ...
 GROUP =  2  ITER =  1 CMAX =  0.00000418052370

 ENERGY AND DIFF OF MACROITER  223 =    -76.03362876      0.00000002

 VB-ORBITAL OPTIMIZATION OF GROUP  2 ...
 GROUP =  2  ITER =  1 CMAX =  0.00000392390791

 ENERGY AND DIFF OF MACROITER  224 =    -76.03362874      0.00000002

 VB-ORBITAL OPTIMIZATION OF GROUP  2 ...
 GROUP =  2  ITER =  1 CMAX =  0.00000368317112

 ENERGY AND DIFF OF MACROITER  225 =    -76.03362872      0.00000002

 VB-ORBITAL OPTIMIZATION OF GROUP  2 ...
 GROUP =  2  ITER =  1 CMAX =  0.00000345731276

 ENERGY AND DIFF OF MACROITER  226 =    -76.03362871      0.00000002

 VB-ORBITAL OPTIMIZATION OF GROUP  2 ...
 GROUP =  2  ITER =  1 CMAX =  0.00000324539609

 ENERGY AND DIFF OF MACROITER  227 =    -76.03362869      0.00000002

 VB-ORBITAL OPTIMIZATION OF GROUP  2 ...
 GROUP =  2  ITER =  1 CMAX =  0.00000304654498

 ENERGY AND DIFF OF MACROITER  228 =    -76.03362868      0.00000001

 VB-ORBITAL OPTIMIZATION OF GROUP  2 ...
 GROUP =  2  ITER =  1 CMAX =  0.00000285993987

 ENERGY AND DIFF OF MACROITER  229 =    -76.03362867      0.00000001

 VB-ORBITAL OPTIMIZATION OF GROUP  2 ...
 GROUP =  2  ITER =  1 CMAX =  0.00000268481391

 ENERGY AND DIFF OF MACROITER  230 =    -76.03362865      0.00000001

 VB-ORBITAL OPTIMIZATION OF GROUP  2 ...
 GROUP =  2  ITER =  1 CMAX =  0.00000252044988

[...]
 GROUP =  2  ITER =  1 CMAX =  0.00000005015649

 ENERGY AND DIFF OF MACROITER  430 =    -76.03271919      0.00000000

 VB-ORBITAL OPTIMIZATION OF GROUP  2 ...
 GROUP =  2  ITER =  1 CMAX =  0.00000048158284

 ENERGY AND DIFF OF MACROITER  431 =    -76.03271919      0.00000000

 VB-ORBITAL OPTIMIZATION OF GROUP  2 ...
 GROUP =  2  ITER =  1 CMAX =  0.00000074912566

 ENERGY AND DIFF OF MACROITER  432 =    -76.03271918      0.00000001

 VB-ORBITAL OPTIMIZATION OF GROUP  2 ...
 GROUP =  2  ITER =  1 CMAX =  0.00000005526717

 ENERGY AND DIFF OF MACROITER  433 =    -76.03271918      0.00000000

 VB-ORBITAL OPTIMIZATION OF GROUP  2 ...
 GROUP =  2  ITER =  1 CMAX =  0.00000015440496

 ENERGY AND DIFF OF MACROITER  434 =    -76.03271917      0.00000000

 VB-ORBITAL OPTIMIZATION OF GROUP  2 ...
 GROUP =  2  ITER =  1 CMAX =  0.00000008188319

 ENERGY AND DIFF OF MACROITER  435 =    -76.03271917      0.00000000

 VB-ORBITAL OPTIMIZATION OF GROUP  2 ...
 GROUP =  2  ITER =  1 CMAX =  0.00000001076614

 ENERGY AND DIFF OF MACROITER  436 =    -76.03271917      0.00000000

 VB-ORBITAL OPTIMIZATION OF GROUP  2 ...
 GROUP =  2  ITER =  1 CMAX =  0.00000007601143

 ENERGY AND DIFF OF MACROITER  437 =    -76.03271917      0.00000000

 VB-ORBITAL OPTIMIZATION OF GROUP  2 ...
 GROUP =  2  ITER =  1 CMAX =  0.00000004579598

 ENERGY AND DIFF OF MACROITER  438 =    -76.03271916      0.00000000

 VB-ORBITAL OPTIMIZATION OF GROUP  2 ...
 GROUP =  2  ITER =  1 CMAX =  0.00000006271362

 ENERGY AND DIFF OF MACROITER  439 =    -76.03271916      0.00000000

 VB-ORBITAL OPTIMIZATION OF GROUP  2 ...
 GROUP =  2  ITER =  1 CMAX =  0.00000004789114

 ENERGY AND DIFF OF MACROITER  440 =    -76.03271916      0.00000000

 VB-ORBITAL OPTIMIZATION OF GROUP  2 ...
 GROUP =  2  ITER =  1 CMAX =  0.00000005054836

 ENERGY AND DIFF OF MACROITER  441 =    -76.03271916      0.00000000

 VB-ORBITAL OPTIMIZATION OF GROUP  2 ...
 GROUP =  2  ITER =  1 CMAX =  0.00000039860251

 ENERGY AND DIFF OF MACROITER  442 =    -76.03271916      0.00000000

 VB-ORBITAL OPTIMIZATION OF GROUP  2 ...
 GROUP =  2  ITER =  1 CMAX =  0.00000059725414

 ENERGY AND DIFF OF MACROITER  443 =    -76.03271916      0.00000000

 VB-ORBITAL OPTIMIZATION OF GROUP  2 ...
 GROUP =  2  ITER =  1 CMAX =  0.00000010994859

 ENERGY AND DIFF OF MACROITER  444 =    -76.03271915      0.00000000

 VB-ORBITAL OPTIMIZATION OF GROUP  2 ...
 GROUP =  2  ITER =  1 CMAX =  0.00000021472702

 ENERGY AND DIFF OF MACROITER  445 =    -76.03271915      0.00000000

 VB-ORBITAL OPTIMIZATION OF GROUP  2 ...
 GROUP =  2  ITER =  1 CMAX =  0.00000010210394

 ENERGY AND DIFF OF MACROITER  446 =    -76.03271915      0.00000000

 VB-ORBITAL OPTIMIZATION OF GROUP  2 ...
 GROUP =  2  ITER =  1 CMAX =  0.00000005614486

 ENERGY AND DIFF OF MACROITER  447 =    -76.03271915      0.00000000

 VB-ORBITAL OPTIMIZATION OF GROUP  2 ...
 GROUP =  2  ITER =  1 CMAX =  0.00000008666015

 ENERGY AND DIFF OF MACROITER  448 =    -76.03271915      0.00000000

 VB-ORBITAL OPTIMIZATION OF GROUP  2 ...
 GROUP =  2  ITER =  1 CMAX =  0.00000000229276

 ENERGY AND DIFF OF MACROITER  449 =    -76.03271915      0.00000000

 VB-ORBITAL OPTIMIZATION OF GROUP  2 ...
 GROUP =  2  ITER =  1 CMAX =  0.00000007029569

 ENERGY AND DIFF OF MACROITER  450 =    -76.03271915      0.00000000

 VB-ORBITAL OPTIMIZATION OF GROUP  2 ...
 GROUP =  2  ITER =  1 CMAX =  0.00000002283100

 ENERGY AND DIFF OF MACROITER  451 =    -76.03271915      0.00000000

 VB-ORBITAL OPTIMIZATION OF GROUP  2 ...
 GROUP =  2  ITER =  1 CMAX =  0.00000005661350

 ENERGY AND DIFF OF MACROITER  452 =    -76.03271915      0.00000000

 VB-ORBITAL OPTIMIZATION OF GROUP  2 ...
 GROUP =  2  ITER =  1 CMAX =  0.00000028851604

 ENERGY AND DIFF OF MACROITER  453 =    -76.03271914      0.00000000

 VB-ORBITAL OPTIMIZATION OF GROUP  2 ...
 GROUP =  2  ITER =  1 CMAX =  0.00000041491983

 ENERGY AND DIFF OF MACROITER  454 =    -76.03271914      0.00000000

 VB-ORBITAL OPTIMIZATION OF GROUP  2 ...
 GROUP =  2  ITER =  1 CMAX =  0.00000013030562

 ENERGY AND DIFF OF MACROITER  455 =    -76.03271914      0.00000000

 VB-ORBITAL OPTIMIZATION OF GROUP  2 ...
 GROUP =  2  ITER =  1 CMAX =  0.00000021820877

 ENERGY AND DIFF OF MACROITER  456 =    -76.03271914      0.00000000

 VB-ORBITAL OPTIMIZATION OF GROUP  2 ...
 GROUP =  2  ITER =  1 CMAX =  0.00000011886299

 ENERGY AND DIFF OF MACROITER  457 =    -76.03271914      0.00000000

 VB-ORBITAL OPTIMIZATION OF GROUP  2 ...
 GROUP =  2  ITER =  1 CMAX =  0.00000010800776

 ENERGY AND DIFF OF MACROITER  458 =    -76.03271914      0.00000000

 VB-ORBITAL OPTIMIZATION OF GROUP  2 ...
 GROUP =  2  ITER =  1 CMAX =  0.00000010311853

 ENERGY AND DIFF OF MACROITER  459 =    -76.03271914      0.00000000

 VB-ORBITAL OPTIMIZATION OF GROUP  2 ...
 GROUP =  2  ITER =  1 CMAX =  0.00000005194239

 ENERGY AND DIFF OF MACROITER  460 =    -76.03271914      0.00000000

 VB-ORBITAL OPTIMIZATION OF GROUP  2 ...
 GROUP =  2  ITER =  1 CMAX =  0.00000008674024

 ENERGY AND DIFF OF MACROITER  461 =    -76.03271914      0.00000000

 VB-ORBITAL OPTIMIZATION OF GROUP  2 ...
 GROUP =  2  ITER =  1 CMAX =  0.00000002244216

 ENERGY AND DIFF OF MACROITER  462 =    -76.03271914      0.00000000

 VB-ORBITAL OPTIMIZATION OF GROUP  2 ...
 GROUP =  2  ITER =  1 CMAX =  0.00000007231595

 ENERGY AND DIFF OF MACROITER  463 =    -76.03271914      0.00000000

 VB-ORBITAL OPTIMIZATION OF GROUP  2 ...
 GROUP =  2  ITER =  1 CMAX =  0.00000016212823

 ENERGY AND DIFF OF MACROITER  464 =    -76.03271914      0.00000000

 VB-ORBITAL OPTIMIZATION OF GROUP  2 ...
 GROUP =  2  ITER =  1 CMAX =  0.00000023584894

 ENERGY AND DIFF OF MACROITER  465 =    -76.03271914      0.00000000

 VB-ORBITAL OPTIMIZATION OF GROUP  2 ...
 GROUP =  2  ITER =  1 CMAX =  0.00000009505289

 ENERGY AND DIFF OF MACROITER  466 =    -76.03271914      0.00000000

 VB-ORBITAL OPTIMIZATION OF GROUP  2 ...
 GROUP =  2  ITER =  1 CMAX =  0.00000015675279

 ENERGY AND DIFF OF MACROITER  467 =    -76.03271914      0.00000000

 VB-ORBITAL OPTIMIZATION OF GROUP  2 ...
 GROUP =  2  ITER =  1 CMAX =  0.00000009693145

 ENERGY AND DIFF OF MACROITER  468 =    -76.03271914      0.00000000

 VB-ORBITAL OPTIMIZATION OF GROUP  2 ...
 GROUP =  2  ITER =  1 CMAX =  0.00000010241321

 ENERGY AND DIFF OF MACROITER  469 =    -76.03271914      0.00000000

 VB-ORBITAL OPTIMIZATION OF GROUP  2 ...
 GROUP =  2  ITER =  1 CMAX =  0.00000009234995

 ENERGY AND DIFF OF MACROITER  470 =    -76.03271914      0.00000000

 VB-ORBITAL OPTIMIZATION OF GROUP  2 ...
 GROUP =  2  ITER =  1 CMAX =  0.00000006973886

 ENERGY AND DIFF OF MACROITER  471 =    -76.03271913      0.00000000

 VB-ORBITAL OPTIMIZATION OF GROUP  2 ...
 GROUP =  2  ITER =  1 CMAX =  0.00000008470745

 ENERGY AND DIFF OF MACROITER  472 =    -76.03271913      0.00000000

 VB-ORBITAL OPTIMIZATION OF GROUP  2 ...
 GROUP =  2  ITER =  1 CMAX =  0.00000004918515

 ENERGY AND DIFF OF MACROITER  473 =    -76.03271913      0.00000000

 VB-ORBITAL OPTIMIZATION OF GROUP  2 ...
 GROUP =  2  ITER =  1 CMAX =  0.00000007640157

 ENERGY AND DIFF OF MACROITER  474 =    -76.03271913      0.00000000

 VB-ORBITAL OPTIMIZATION OF GROUP  2 ...
 GROUP =  2  ITER =  1 CMAX =  0.00000006332763

 ENERGY AND DIFF OF MACROITER  475 =    -76.03271913      0.00000000

 VB-ORBITAL OPTIMIZATION OF GROUP  2 ...
 GROUP =  2  ITER =  1 CMAX =  0.00000010424083

 ENERGY AND DIFF OF MACROITER  476 =    -76.03271913      0.00000000

 VB-ORBITAL OPTIMIZATION OF GROUP  2 ...
 GROUP =  2  ITER =  1 CMAX =  0.00000003933897

 ENERGY AND DIFF OF MACROITER  477 =    -76.03271913      0.00000000

 VB-ORBITAL OPTIMIZATION OF GROUP  2 ...
 GROUP =  2  ITER =  1 CMAX =  0.00000007751702

 ENERGY AND DIFF OF MACROITER  478 =    -76.03271913      0.00000000

 VB-ORBITAL OPTIMIZATION OF GROUP  2 ...
 GROUP =  2  ITER =  1 CMAX =  0.00000004788419

 ENERGY AND DIFF OF MACROITER  479 =    -76.03271913      0.00000000

 VB-ORBITAL OPTIMIZATION OF GROUP  2 ...
 GROUP =  2  ITER =  1 CMAX =  0.00000004685036

 ENERGY AND DIFF OF MACROITER  480 =    -76.03271913      0.00000000

 VB-ORBITAL OPTIMIZATION OF GROUP  2 ...
 GROUP =  2  ITER =  1 CMAX =  0.00000013565342

 ENERGY AND DIFF OF MACROITER  481 =    -76.03271913     -0.00000000

 VB-ORBITAL OPTIMIZATION OF GROUP  2 ...
 GROUP =  2  ITER =  1 CMAX =  0.00000002174357

 ENERGY AND DIFF OF MACROITER  482 =    -76.03271913      0.00000000

 VB-ORBITAL OPTIMIZATION OF GROUP  2 ...
 GROUP =  2  ITER =  1 CMAX =  0.00000012325677

 ENERGY AND DIFF OF MACROITER  483 =    -76.03271913     -0.00000000

 VB-ORBITAL OPTIMIZATION OF GROUP  2 ...
 GROUP =  2  ITER =  1 CMAX =  0.00000001801807

 ENERGY AND DIFF OF MACROITER  484 =    -76.03271913      0.00000000

 VB-ORBITAL OPTIMIZATION OF GROUP  2 ...
 GROUP =  2  ITER =  1 CMAX =  0.00000010864617

 ENERGY AND DIFF OF MACROITER  485 =    -76.03271913     -0.00000000

 VB-ORBITAL OPTIMIZATION OF GROUP  2 ...
 GROUP =  2  ITER =  1 CMAX =  0.00000001554128

 DELOCALIZATION FOR VB ORBITALS OF GROUP  2
 =============================================
 VBO INDEX =  1 DELOCALIZATION =   0.00000
 VBO INDEX =  2 DELOCALIZATION =   0.00000
 VBO INDEX =  3 DELOCALIZATION =   0.00000
 VBO INDEX =  4 DELOCALIZATION =   0.00000


 OVERLAP MATRIX OF VB ORBITALS FOR GROUP   2

        1      2      3      4
 ===============================
   1 1.0000
   2 0.6024 1.0000
   3 0.4205 0.2199 1.0000
   4 0.2199 0.1563 0.6024 1.0000

 Normalized structure coefficients
 -0.3593 -0.3967 -0.3967

 ====Mulliken Weight====
  0.3311  0.3345  0.3345

 ====Lowdin   Weight====
  0.2449  0.3776  0.3776

 ====Hiberty  Weight====
  0.2909  0.3546  0.3546


 ENERGY AND DIFF OF MACROITER  486 =    -76.03271913      0.00000000


 MULLIKEN CHARGES ON ATOMS
 -------------------------
  ATOM             CHARGE 

    1            -0.68806
    2             0.34403
    3             0.34403

 -------------------------


 ORBITALS OF EACH ELECTRON GROUP IN AO BASIS: ORBITAL(GROUP)
 ===========================================================================
    Orbital#             1         2         3         4         5         6
      Group#             1         1         1         2         2         2
 ---------------------------------------------------------------------------
  AO# LABELS
   1  1  O     s  -0.59337   0.04315   0.00000  -0.05919   0.00000  -0.05919
   2  1  O     s  -0.48092   0.09140   0.00000  -0.11229  -0.00000  -0.11229
   3  1  O     s   0.06617  -0.38728   0.00000   0.43675   0.00000   0.43675
   4  1  O     s   0.05883  -0.43567   0.00000   0.29445  -0.00000   0.29445
   5  1  O     x  -0.00000  -0.00000   0.00000   0.44618   0.00000  -0.44618
   6  1  O     y  -0.00001  -0.00001  -0.73224   0.00000   0.00000   0.00000
   7  1  O     z  -0.01958   0.52222  -0.00001   0.42328   0.00000   0.42328
   8  1  O     x   0.00000   0.00000  -0.00000   0.15061  -0.00000  -0.15061
   9  1  O     y  -0.00000  -0.00000  -0.40480   0.00000   0.00000   0.00000
  10  1  O     z  -0.01293   0.28222  -0.00000   0.17433   0.00000   0.17433
  11  2  H     s   0.00823   0.06447  -0.00000   0.00000   0.74975   0.00000
  12  2  H     s  -0.00014   0.06833  -0.00000  -0.00000   0.32462  -0.00000
  13  3  H     s   0.00823   0.06447  -0.00000   0.00000   0.00000   0.00000
  14  3  H     s  -0.00014   0.06833  -0.00000  -0.00000  -0.00000  -0.00000

 ===========================================================================
    Orbital#             7
      Group#             2
 ---------------------------------------------------------------------------
  AO# LABELS
   1  1  O     s   0.00000
   2  1  O     s  -0.00000
   3  1  O     s   0.00000
   4  1  O     s  -0.00000
   5  1  O     x  -0.00000
   6  1  O     y   0.00000
   7  1  O     z   0.00000
   8  1  O     x   0.00000
   9  1  O     y   0.00000
  10  1  O     z   0.00000
  11  2  H     s   0.00000
  12  2  H     s  -0.00000
  13  3  H     s   0.74975
  14  3  H     s   0.32462


 CALCULATION OF POSITION AND EXTENT OF VB ORBITALS

 DEFAULT CENTROIDS AND EXTENTS.

 MOLECULAR GEOMETRY ABOUT CENTER OF MASS

  Atom#   ATOMIC NO.     X        Y        Z
    1         8        0.0000   0.0000  -0.0622
    2         1        0.8018   0.0000   0.4934
    3         1       -0.8018   0.0000   0.4934

 CENTROIDS OF CHARGE FOR EACH VB GROUP & DISTANCES FROM 3 ATOMS

                                                  DISTANCES FROM ATOMS
 Orbital#   Group#       X        Y        Z        1        2        3
    4         2        0.2385   0.0000   0.1770   0.3378   0.6461   1.0874
    5         2        0.8018   0.0000   0.4934   0.9755   0.0000   1.6037
    6         2       -0.2385   0.0000   0.1770   0.3378   1.0874   0.6461
    7         2       -0.8018   0.0000   0.4934   0.9755   1.6037   0.0000

 EXTENT OF ORBITAL MEASURED BY (<R**2>)

 Orbital#   Group#     <X**2>   <Y**2>   <Z**2>   <R**2> Sqrt<R**2>

    4         2        0.1159   0.1162   0.1200   0.3521   0.5934
    5         2        0.1397   0.1397   0.1397   0.4190   0.6473
    6         2        0.1159   0.1162   0.1200   0.3521   0.5934
    7         2        0.1397   0.1397   0.1397   0.4190   0.6473

 WORDS OF DYNAMIC MEMORY USED IN VB2000 CODE ONLY:        9802
 NOTE THAT THIS IS IN ADDITION TO MEMORY USED BY GAMESS
 PRINTED NEAR END OF OUTPUT. ADD THE TWO AMOUNTS TO GIVE
 THE TOTAL MEMORY USED BY THE JOB

 STATISTICS OF CPU TIMES (SECONDS)
 CPU TIME FOR INITIALIZATION        0.000
 CPU TIME FOR MACROITERATION        4.000
 TOTAL CPU TIME                     4.000

 STEP CPU TIME =     4.06 TOTAL CPU TIME =        4.1 (    0.1 MIN)
 TOTAL WALL CLOCK TIME=        4.1 SECONDS, CPU UTILIZATION IS  99.51%

 **************************************************************
 *                                                            *
 *                  ENDING GAMESS(US) VB2000                  *
 *                                                            *
 *  Properties for individual molecular orbitals are correct  *
 *   only for VB modified orbitals in a Hartree-Fock group.   *
 *                                                            *
 **************************************************************

     ----------------------------------
     PROPERTIES FOR THE VB WAVEFUNCTION
     ----------------------------------

          -----------------
          ENERGY COMPONENTS
          -----------------

         WAVEFUNCTION NORMALIZATION =       1.0000000000

                ONE ELECTRON ENERGY =    -122.5077957298
                TWO ELECTRON ENERGY =      37.4657162244
           NUCLEAR REPULSION ENERGY =       9.0093603723
                                      ------------------
                       TOTAL ENERGY =     -76.0327191331

 ELECTRON-ELECTRON POTENTIAL ENERGY =      37.4657162244
  NUCLEUS-ELECTRON POTENTIAL ENERGY =    -198.5599984391
   NUCLEUS-NUCLEUS POTENTIAL ENERGY =       9.0093603723
                                      ------------------
             TOTAL POTENTIAL ENERGY =    -152.0849218425
               TOTAL KINETIC ENERGY =      76.0522027094
                 VIRIAL RATIO (V/T) =       1.9997438131

          ---------------------------------------
          MULLIKEN AND LOWDIN POPULATION ANALYSES
          ---------------------------------------

     ATOMIC MULLIKEN POPULATION IN EACH MOLECULAR ORBITAL

                      1          2          3          4          5

                  2.000000   2.000000   2.000000   2.000000   2.000000

    1             1.999838   2.019303   2.000000   1.812831   2.000000
    2             0.000081  -0.009651  -0.000000   0.093585   0.000000
    3             0.000081  -0.009651  -0.000000   0.093585   0.000000

               ----- POPULATIONS IN EACH AO -----
                             MULLIKEN      LOWDIN
              1  O  1  S      1.13220     1.07249
              2  O  1  S      0.86271     0.90903
              3  O  1  S      0.92406     0.85781
              4  O  1  S      0.87861     0.76406
              5  O  1  X      0.94591     0.85784
              6  O  1  Y      1.37231     1.32113
              7  O  1  Z      1.13647     1.06729
              8  O  1  X      0.30187     0.42215
              9  O  1  Y      0.62769     0.67887
             10  O  1  Z      0.50622     0.59536
             11  H  2  S      0.48958     0.46126
             12  H  2  S      0.16639     0.26572
             13  H  3  S      0.48958     0.46126
             14  H  3  S      0.16639     0.26572

          ----- MULLIKEN ATOMIC OVERLAP POPULATIONS -----
          (OFF-DIAGONAL ELEMENTS NEED TO BE MULTIPLIED BY 2)

             1           2           3

    1    8.1802770
    2    0.2538917   0.4155830
    3    0.2538917  -0.0135050   0.4155830

          TOTAL MULLIKEN AND LOWDIN ATOMIC POPULATIONS
       ATOM         MULL.POP.    CHARGE          LOW.POP.     CHARGE
    1 OXYGEN        8.688060   -0.688060         8.546029   -0.546029
    2 HYDROGEN      0.655970    0.344030         0.726986    0.273014
    3 HYDROGEN      0.655970    0.344030         0.726986    0.273014

          -------------------------------
          BOND ORDER AND VALENCE ANALYSIS     BOND ORDER THRESHOLD=0.050
          -------------------------------

                   BOND                       BOND                       BOND
  ATOM PAIR DIST  ORDER      ATOM PAIR DIST  ORDER      ATOM PAIR DIST  ORDER
    1   2  0.976  0.793        1   3  0.976  0.793

                       TOTAL       BONDED        FREE
      ATOM            VALENCE     VALENCE     VALENCE
    1 OXYGEN            1.723       1.585       0.137
    2 HYDROGEN          0.869       0.799       0.070
    3 HYDROGEN          0.869       0.799       0.070

          ---------------------
          ELECTROSTATIC MOMENTS
          ---------------------

 POINT   1           X           Y           Z (BOHR)    CHARGE
                 0.000000    0.000000    0.117499       -0.00 (A.U.)
         DX          DY          DZ         /D/  (DEBYE)
     0.000000   -0.000000    2.396694    2.396694
 ...... END OF PROPERTY EVALUATION ......
 STEP CPU TIME =     0.00 TOTAL CPU TIME =        4.1 (    0.1 MIN)
 TOTAL WALL CLOCK TIME=        4.1 SECONDS, CPU UTILIZATION IS  99.51%
               580000  WORDS OF DYNAMIC MEMORY USED
 EXECUTION OF GAMESS TERMINATED NORMALLY Mon Oct 14 07:30:04 2013
 DDI: 263624 bytes (0.3 MB / 0 MWords) used by master data server.

 ----------------------------------------
 CPU timing information for all processes
 ========================================
 0: 3.776 + 0.312 = 4.88
 ----------------------------------------
 ddikick.x: exited gracefully.
unset echo
----- accounting info -----
Files used on the master node titch-64 were:
-rw-r--r-- 1 brian brian    3393 Oct 14 07:30 /scr/brian/exam-vb23.F05
-rw-rw-r-- 1 brian brian  180016 Oct 14 07:30 /scr/brian/exam-vb23.F08
-rw-rw-r-- 1 brian brian 1505120 Oct 14 07:30 /scr/brian/exam-vb23.F10
-rw-rw-r-- 1 brian brian      88 Oct 14 07:30 /scr/brian/exam-vb23.TEMP02
-rw-rw-r-- 1 brian brian      88 Oct 14 07:30 /scr/brian/exam-vb23.TEMP03
-rw-rw-r-- 1 brian brian     448 Oct 14 07:30 /scr/brian/exam-vb23.TEMP04
-rw-rw-r-- 1 brian brian    3078 Oct 14 07:30 /scr/brian/exam-vb23.V80
-rw-rw-r-- 1 brian brian       0 Oct 14 07:30 /scr/brian/exam-vb23.V82
-rw-rw-r-- 1 brian brian       0 Oct 14 07:30 /scr/brian/exam-vb23.V83
-rw-rw-r-- 1 brian brian    1984 Oct 14 07:30 /scr/brian/exam-vb23.V84
-rw-rw-r-- 1 brian brian   60616 Oct 14 07:30 /scr/brian/exam-vb23.V85
-rw-rw-r-- 1 brian brian  196592 Oct 14 07:30 /scr/brian/exam-vb23.V86
-rw-rw-r-- 1 brian brian  196592 Oct 14 07:30 /scr/brian/exam-vb23.V87
-rw-rw-r-- 1 brian brian     968 Oct 14 07:30 /scr/brian/exam-vb23.V88
-rw-rw-r-- 1 brian brian       0 Oct 14 07:30 /scr/brian/exam-vb23.V89
ls: No match.
ls: No match.
ls: No match.
Mon Oct 14 07:30:07 EST 2013
0.088u 0.008s 0:07.26 1.1%	0+0k 8+24io 0pf+0w
