----- GAMESS execution script 'rungms' -----
This job is running on host titch-64
under operating system Linux at Mon Oct 14 07:28:41 EST 2013
Available scratch disk space (Kbyte units) at beginning of the job is
Filesystem     1K-blocks      Used Available Use% Mounted on
/dev/sda1      945022356 138264176 758753828  16% /
GAMESS temporary binary files will be written to /scr/brian
GAMESS supplementary output files will be written to /home/brian/scr
Copying input file exam-vb12.inp to your run's scratch directory...
cp tests/exam-vb12.inp /scr/brian/exam-vb12.F05
unset echo
/home/brian/qchem/gamess/ddikick.x /home/brian/qchem/gamess/gamess.01.x exam-vb12 -ddi 1 1 titch-64 -scr /scr/brian

 Distributed Data Interface kickoff program.
 Initiating 1 compute processes on 1 nodes to run the following command:
 /home/brian/qchem/gamess/gamess.01.x exam-vb12 

          ******************************************************
          *         GAMESS VERSION =  1 MAY 2013 (R1)          *
          *             FROM IOWA STATE UNIVERSITY             *
          * M.W.SCHMIDT, K.K.BALDRIDGE, J.A.BOATZ, S.T.ELBERT, *
          *   M.S.GORDON, J.H.JENSEN, S.KOSEKI, N.MATSUNAGA,   *
          *          K.A.NGUYEN, S.J.SU, T.L.WINDUS,           *
          *       TOGETHER WITH M.DUPUIS, J.A.MONTGOMERY       *
          *         J.COMPUT.CHEM.  14, 1347-1363(1993)        *
          **************** 64 BIT LINUX VERSION ****************

  SINCE 1993, STUDENTS AND POSTDOCS WORKING AT IOWA STATE UNIVERSITY
  AND ALSO IN THEIR VARIOUS JOBS AFTER LEAVING ISU HAVE MADE IMPORTANT
  CONTRIBUTIONS TO THE CODE:
     IVANA ADAMOVIC, CHRISTINE AIKENS, YURI ALEXEEV, POOJA ARORA,
     ANDREY ASADCHEV, ROB BELL, PRADIPTA BANDYOPADHYAY, JONATHAN BENTZ,
     BRETT BODE, GALINA CHABAN, WEI CHEN, CHEOL HO CHOI, PAUL DAY,
     ALBERT DEFUSCO, TIM DUDLEY, DMITRI FEDOROV, GRAHAM FLETCHER,
     MARK FREITAG, KURT GLAESEMANN, DAN KEMP, GRANT MERRILL,
     NORIYUKI MINEZAWA, JONATHAN MULLIN, TAKESHI NAGATA,
     SEAN NEDD, HEATHER NETZLOFF, BOSILJKA NJEGIC, RYAN OLSON, MIKE PAK,
     JIM SHOEMAKER, LYUDMILA SLIPCHENKO, SAROM SOK, JIE SONG,
     TETSUYA TAKETSUGU, SIMON WEBB, SOOHAENG YOO, FEDERICO ZAHARIEV

  ADDITIONAL CODE HAS BEEN PROVIDED BY COLLABORATORS IN OTHER GROUPS:
     IOWA STATE UNIVERSITY:
          JOE IVANIC, LAIMUTIS BYTAUTAS, KLAUS RUEDENBERG
     UNIVERSITY OF TOKYO: KIMIHIKO HIRAO, TAKAHITO NAKAJIMA,
          TAKAO TSUNEDA, MUNEAKI KAMIYA, SUSUMU YANAGISAWA,
          KIYOSHI YAGI, MAHITO CHIBA, SEIKEN TOKURA, NAOAKI KAWAKAMI
     UNIVERSITY OF AARHUS: FRANK JENSEN
     UNIVERSITY OF IOWA: VISVALDAS KAIRYS, HUI LI
     NATIONAL INST. OF STANDARDS AND TECHNOLOGY: WALT STEVENS, DAVID GARMER
     UNIVERSITY OF PISA: BENEDETTA MENNUCCI, JACOPO TOMASI
     UNIVERSITY OF MEMPHIS: HENRY KURTZ, PRAKASHAN KORAMBATH
     UNIVERSITY OF ALBERTA: TOBY ZENG, MARIUSZ KLOBUKOWSKI
     UNIVERSITY OF NEW ENGLAND: MARK SPACKMAN
     MIE UNIVERSITY: HIROAKI UMEDA
     MICHIGAN STATE UNIVERSITY:
          KAROL KOWALSKI, MARTA WLOCH, JEFFREY GOUR, JESSE LUTZ,
          WEI LI, PIOTR PIECUCH
     UNIVERSITY OF SILESIA: MONIKA MUSIAL, STANISLAW KUCHARSKI
     FACULTES UNIVERSITAIRES NOTRE-DAME DE LA PAIX:
          OLIVIER QUINET, BENOIT CHAMPAGNE
     UNIVERSITY OF CALIFORNIA - SANTA BARBARA: BERNARD KIRTMAN
     INSTITUTE FOR MOLECULAR SCIENCE:
          KAZUYA ISHIMURA, MICHIO KATOUDA, AND SHIGERU NAGASE
     UNIVERSITY OF NOTRE DAME: DAN CHIPMAN
     KYUSHU UNIVERSITY:
          HARUYUKI NAKANO,
          FENG LONG GU, JACEK KORCHOWIEC, MARCIN MAKOWSKI, AND YURIKO AOKI,
          HIROTOSHI MORI AND EISAKU MIYOSHI
     PENNSYLVANIA STATE UNIVERSITY:
          TZVETELIN IORDANOV, CHET SWALINA, JONATHAN SKONE,
          SHARON HAMMES-SCHIFFER
     WASEDA UNIVERSITY:
          MASATO KOBAYASHI, TOMOKO AKAMA, TSUGUKI TOUMA,
          TAKESHI YOSHIKAWA, YASUHIRO IKABATA, HIROMI NAKAI
     NANJING UNIVERSITY: SHUHUA LI
     UNIVERSITY OF NEBRASKA:
          PEIFENG SU, DEJUN SI, NANDUN THELLAMUREGE, YALI WANG, HUI LI
     UNIVERSITY OF ZURICH:
          ROBERTO PEVERATI, KIM BALDRIDGE
     N. COPERNICUS UNIVERSITY AND JACKSON STATE UNIVERSITY:
          MARIA BARYSZ

 EXECUTION OF GAMESS BEGUN Mon Oct 14 07:28:41 2013

            ECHO OF THE FIRST FEW INPUT CARDS -
 INPUT CARD>! GAMESS/VB2000 Test 12.                                                        
 INPUT CARD>! This run illustrates optimising the geometry using the Gamess                 
 INPUT CARD>! NUMGRD facility. If PRINTALL is selected on the command line, its             
 INPUT CARD>! effect is cancelled after the first VB step. The molecular orbitals           
 INPUT CARD>! are not updated to the VB orbitals for the HF group at any stage.             
 INPUT CARD>! The final output is therefore HF for all MO properties but VB for             
 INPUT CARD>! total wave function properties. The final geometry is length = 0.975          
 INPUT CARD>! (note that with C1 symmetry, the two bonds are very slightly                  
 INPUT CARD>! different) and the H-H distance is 1.578.                                     
 INPUT CARD>!                                                                               
 INPUT CARD>! The very final VB energy is:                                                  
 INPUT CARD>!                                                                               
 INPUT CARD>! NSERCH=  6     ENERGY=     -76.0293506                                        
 INPUT CARD>!                                                                               
 INPUT CARD> $CONTRL SCFTYP=RHF VBTYP=VB2000 COORD=UNIQUE                                   
 INPUT CARD>   RUNTYP=OPTIMIZE NUMGRD=.TRUE. INTTYP=HONDO                                   
 INPUT CARD> $END                                                                           
 INPUT CARD> $STATPT OPTTOL=0.000001 $END                                                   
 INPUT CARD> $SYSTEM TIMLIM=20 MEMORY=2000000 $END                                          
 INPUT CARD> $BASIS  GBASIS=N31 NGAUSS=6 $END                                               
 INPUT CARD> $GUESS  GUESS=HUCKEL $END                                                      
 INPUT CARD> $DATA                                                                          
 INPUT CARD>Water 6-31G VB2000 Test                                                         
 INPUT CARD>C1                                                                              
 INPUT CARD>O     8.0     0.0000000000      0.0000000000      0.0000000000                  
 INPUT CARD>H     1.0     0.0000000000      0.0000000000      0.9999999995                  
 INPUT CARD>H     1.0     0.9848077526      0.0000000000     -0.1736481776                  
 INPUT CARD> $END                                                                           
 INPUT CARD> $VB2000                                                                        
 INPUT CARD>#! VB(4)/6-31G PRINTALL                                                         
 INPUT CARD>                                                                                
 INPUT CARD>Water 6-31G VB2000 Test                                                         
 INPUT CARD>                                                                                
 INPUT CARD> $END                                                                           
 INPUT CARD>                                                                                
    2000000 WORDS OF MEMORY AVAILABLE

     BASIS OPTIONS
     -------------
     GBASIS=N31          IGAUSS=       6      POLAR=NONE    
     NDFUNC=       0     NFFUNC=       0     DIFFSP=       F
     NPFUNC=       0      DIFFS=       F     BASNAM=        


     RUN TITLE
     ---------
 Water 6-31G VB2000 Test                                                         

 THE POINT GROUP OF THE MOLECULE IS C1      
 THE ORDER OF THE PRINCIPAL AXIS IS     0

 ATOM      ATOMIC                      COORDINATES (BOHR)
           CHARGE         X                   Y                   Z
 O           8.0     0.0000000000        0.0000000000        0.0000000000
 H           1.0     0.0000000000        0.0000000000        1.8897259868
 H           1.0     1.8610168030        0.0000000000       -0.3281474739

          INTERNUCLEAR DISTANCES (ANGS.)
          ------------------------------

                1 O          2 H          3 H     

   1 O       0.0000000    1.0000000 *  1.0000000 *
   2 H       1.0000000 *  0.0000000    1.5320889 *
   3 H       1.0000000 *  1.5320889 *  0.0000000  

  * ... LESS THAN  3.000


     ATOMIC BASIS SET
     ----------------
 THE CONTRACTED PRIMITIVE FUNCTIONS HAVE BEEN UNNORMALIZED
 THE CONTRACTED BASIS FUNCTIONS ARE NOW NORMALIZED TO UNITY

  SHELL TYPE  PRIMITIVE        EXPONENT          CONTRACTION COEFFICIENT(S)

 O         

      1   S       1          5484.6716600    0.001831074430
      1   S       2           825.2349460    0.013950172200
      1   S       3           188.0469580    0.068445078098
      1   S       4            52.9645000    0.232714335992
      1   S       5            16.8975704    0.470192897984
      1   S       6             5.7996353    0.358520852987

      2   L       7            15.5396162   -0.110777549525    0.070874268231
      2   L       8             3.5999336   -0.148026262701    0.339752839147
      2   L       9             1.0137618    1.130767015354    0.727158577316

      3   L      10             0.2700058    1.000000000000    1.000000000000

 H         

      4   S      11            18.7311370    0.033494604338
      4   S      12             2.8253944    0.234726953484
      4   S      13             0.6401217    0.813757326146

      5   S      14             0.1612778    1.000000000000

 H         

      6   S      15            18.7311370    0.033494604338
      6   S      16             2.8253944    0.234726953484
      6   S      17             0.6401217    0.813757326146

      7   S      18             0.1612778    1.000000000000

 TOTAL NUMBER OF BASIS SET SHELLS             =    7
 NUMBER OF CARTESIAN GAUSSIAN BASIS FUNCTIONS =   13
 NUMBER OF ELECTRONS                          =   10
 CHARGE OF MOLECULE                           =    0
 SPIN MULTIPLICITY                            =    1
 NUMBER OF OCCUPIED ORBITALS (ALPHA)          =    5
 NUMBER OF OCCUPIED ORBITALS (BETA )          =    5
 TOTAL NUMBER OF ATOMS                        =    3
 THE NUCLEAR REPULSION ENERGY IS        8.8122319111

     $CONTRL OPTIONS
     ---------------
 SCFTYP=RHF          RUNTYP=OPTIMIZE     EXETYP=RUN     
 MPLEVL=       0     CITYP =NONE         CCTYP =NONE         VBTYP =VB2000  
 DFTTYP=NONE         TDDFT =NONE    
 MULT  =       1     ICHARG=       0     NZVAR =       0     COORD =UNIQUE  
 PP    =NONE         RELWFN=NONE         LOCAL =NONE         NUMGRD=       T
 ISPHER=      -1     NOSYM =       0     MAXIT =      30     UNITS =ANGS    
 PLTORB=       F     MOLPLT=       F     AIMPAC=       F     FRIEND=        
 NPRINT=       7     IREST =       0     GEOM  =INPUT   
 NORMF =       0     NORMP =       0     ITOL  =      20     ICUT  =       9
 INTTYP=BEST         GRDTYP=BEST         QMTTOL= 1.0E-06

     $SYSTEM OPTIONS
     ---------------
  REPLICATED MEMORY=     2000000 WORDS (ON EVERY NODE).
 DISTRIBUTED MEMDDI=           0 MILLION WORDS IN AGGREGATE,
 MEMDDI DISTRIBUTED OVER   1 PROCESSORS IS           0 WORDS/PROCESSOR.
 TOTAL MEMORY REQUESTED ON EACH PROCESSOR=     2000000 WORDS.
 TIMLIM=          20.00 MINUTES, OR       0.0 DAYS.
 PARALL= F  BALTYP=  DLB     KDIAG=    0  COREFL= F
 MXSEQ2=     300 MXSEQ3=     150

          ----------------
          PROPERTIES INPUT
          ----------------

     MOMENTS            FIELD           POTENTIAL          DENSITY
 IEMOM =       1   IEFLD =       0   IEPOT =       0   IEDEN =       0
 WHERE =COMASS     WHERE =NUCLEI     WHERE =NUCLEI     WHERE =NUCLEI  
 OUTPUT=BOTH       OUTPUT=BOTH       OUTPUT=BOTH       OUTPUT=BOTH    
 IEMINT=       0   IEFINT=       0                     IEDINT=       0
                                                       MORB  =       0
          EXTRAPOLATION IN EFFECT
          SOSCF IN EFFECT
 ORBITAL PRINTING OPTION: NPREO=     1    13     2     1

     -------------------------------
     INTEGRAL TRANSFORMATION OPTIONS
     -------------------------------
     NWORD  =            0
     CUTOFF = 1.0E-09     MPTRAN =       0
     DIRTRF =       F     AOINTS =DUP     

          ----------------------
          INTEGRAL INPUT OPTIONS
          ----------------------
 NOPK  =       1 NORDER=       0 SCHWRZ=       F

     ------------------------------------------
     THE POINT GROUP IS C1 , NAXIS= 0, ORDER= 1
     ------------------------------------------

     DIMENSIONS OF THE SYMMETRY SUBSPACES ARE
 A   =   13

 ..... DONE SETTING UP THE RUN .....
 STEP CPU TIME =     0.00 TOTAL CPU TIME =        0.0 (    0.0 MIN)
 TOTAL WALL CLOCK TIME=        0.0 SECONDS, CPU UTILIZATION IS   0.00%


          -----------------------------
          STATIONARY POINT LOCATION RUN
          -----------------------------

 OBTAINING INITIAL HESSIAN, HESS=GUESS   
 CARTESIAN COORDINATE OPTIMIZATION USING BADGER'S RULE FORCE CONSTANT GUESS

          PARAMETERS CONTROLLING GEOMETRY SEARCH ARE
          METHOD =QA                  UPHESS =BFGS    
          NNEG   =         0          NFRZ   =         0
          NSTEP  =        50          IFOLOW =         1
          HESS   =GUESS               RESTAR =         F
          IHREP  =         0          HSSEND =         F
          NPRT   =         0          NPUN   =         0
          OPTTOL = 1.000E-06          RMIN   = 1.500E-03
          RMAX   = 1.000E-01          RLIM   = 7.000E-02
          DXMAX  = 3.000E-01          PURIFY =         F
          MOVIE  =         F          TRUPD  =         T
          TRMAX  = 5.000E-01          TRMIN  = 5.000E-02
          ITBMAT =         5          STPT   =         F
          STSTEP = 1.000E-02          PROJCT=          T

 BEGINNING GEOMETRY SEARCH POINT NSERCH=   0 ...

 COORDINATES OF ALL ATOMS ARE (ANGS)
   ATOM   CHARGE       X              Y              Z
 ------------------------------------------------------------
 O           8.0   0.0000000000   0.0000000000   0.0000000000
 H           1.0   0.0000000000   0.0000000000   0.9999999995
 H           1.0   0.9848077526   0.0000000000  -0.1736481776

          ********************
          1 ELECTRON INTEGRALS
          ********************
 ...... END OF ONE-ELECTRON INTEGRALS ......
 STEP CPU TIME =     0.00 TOTAL CPU TIME =        0.0 (    0.0 MIN)
 TOTAL WALL CLOCK TIME=        0.0 SECONDS, CPU UTILIZATION IS   0.00%

          -------------
          GUESS OPTIONS
          -------------
          GUESS =HUCKEL            NORB  =       0          NORDER=       0
          MIX   =       F          PRTMO =       F          PUNMO =       F
          TOLZ  = 1.0E-08          TOLE  = 1.0E-05
          SYMDEN=       F          PURIFY=       F

 INITIAL GUESS ORBITALS GENERATED BY HUCKEL   ROUTINE.
 HUCKEL GUESS REQUIRES      3535 WORDS.

 SYMMETRIES FOR INITIAL GUESS ORBITALS FOLLOW.   BOTH SET(S).
     5 ORBITALS ARE OCCUPIED (    1 CORE ORBITALS).
     2=A        3=A        4=A        5=A        6=A        7=A        8=A   
     9=A       10=A       11=A       12=A       13=A   
 ...... END OF INITIAL ORBITAL SELECTION ......
 STEP CPU TIME =     0.00 TOTAL CPU TIME =        0.0 (    0.0 MIN)
 TOTAL WALL CLOCK TIME=        0.0 SECONDS, CPU UTILIZATION IS   0.00%

                    ----------------------
                    AO INTEGRAL TECHNOLOGY
                    ----------------------
     S,P,L SHELL ROTATED AXIS INTEGRALS, REPROGRAMMED BY
        KAZUYA ISHIMURA (IMS) AND JOSE SIERRA (SYNSTAR).
     S,P,D,L SHELL ROTATED AXIS INTEGRALS PROGRAMMED BY
        KAZUYA ISHIMURA (INSTITUTE FOR MOLECULAR SCIENCE).
     S,P,D,F,G SHELL TO TOTAL QUARTET ANGULAR MOMENTUM SUM 5,
        ERIC PROGRAM BY GRAHAM FLETCHER (ELORET AND NASA ADVANCED
        SUPERCOMPUTING DIVISION, AMES RESEARCH CENTER).
     S,P,D,F,G,L SHELL GENERAL RYS QUADRATURE PROGRAMMED BY
        MICHEL DUPUIS (PACIFIC NORTHWEST NATIONAL LABORATORY).

          --------------------
          2 ELECTRON INTEGRALS
          --------------------

 THE -PK- OPTION IS OFF, THE INTEGRALS ARE NOT IN SUPERMATRIX FORM.
 STORING   15000 INTEGRALS/RECORD ON DISK, USING 12 BYTES/INTEGRAL.
 TWO ELECTRON INTEGRAL EVALUATION REQUIRES   89384 WORDS OF MEMORY.
 II,JST,KST,LST =  1  1  1  1 NREC =         1 INTLOC =    1
 II,JST,KST,LST =  2  1  1  1 NREC =         1 INTLOC =    2
 II,JST,KST,LST =  3  1  1  1 NREC =         1 INTLOC =   34
 II,JST,KST,LST =  4  1  1  1 NREC =         1 INTLOC =  214
 II,JST,KST,LST =  5  1  1  1 NREC =         1 INTLOC =  407
 II,JST,KST,LST =  6  1  1  1 NREC =         1 INTLOC =  678
 II,JST,KST,LST =  7  1  1  1 NREC =         1 INTLOC = 1252
 TOTAL NUMBER OF NONZERO TWO-ELECTRON INTEGRALS =                1998
          1 INTEGRAL RECORDS WERE STORED ON DISK FILE  8.
  ...... END OF TWO-ELECTRON INTEGRALS .....
 STEP CPU TIME =     0.02 TOTAL CPU TIME =        0.0 (    0.0 MIN)
 TOTAL WALL CLOCK TIME=        0.0 SECONDS, CPU UTILIZATION IS 100.00%

          --------------------------
                 RHF SCF CALCULATION
          --------------------------

     NUCLEAR ENERGY =         8.8122319111
     MAXIT =   30     NPUNCH=    2
     EXTRAP=T  DAMP=F  SHIFT=F  RSTRCT=F  DIIS=F  DEM=F  SOSCF=T
     DENSITY MATRIX CONV=  1.00E-05
     SOSCF WILL OPTIMIZE      40 ORBITAL ROTATIONS, SOGTOL=   0.250
     MEMORY REQUIRED FOR RHF ITERS=     31525 WORDS.

 ITER EX DEM     TOTAL ENERGY        E CHANGE  DENSITY CHANGE     ORB. GRAD
   1  0  0      -75.7695745067   -75.7695745067   0.292470375   0.000000000
          ---------------START SECOND ORDER SCF---------------
   2  1  0      -75.9647472943    -0.1951727876   0.061405471   0.061196853
   3  2  0      -75.9771104348    -0.0123631405   0.025233891   0.012188935
   4  3  0      -75.9782608537    -0.0011504189   0.004722472   0.003824125
   5  4  0      -75.9783248769    -0.0000640233   0.001397208   0.001870403
   6  5  0      -75.9783397164    -0.0000148395   0.000863910   0.000403325
   7  6  0      -75.9783410558    -0.0000013394   0.000093156   0.000061320
   8  7  0      -75.9783410655    -0.0000000097   0.000034788   0.000018534
   9  8  0      -75.9783410663    -0.0000000008   0.000004863   0.000001898
  10  9  0      -75.9783410663    -0.0000000000   0.000001280   0.000000455

          -----------------
          DENSITY CONVERGED
          -----------------
     TIME TO FORM FOCK OPERATORS=       0.0 SECONDS (       0.0 SEC/ITER)
     TIME TO SOLVE SCF EQUATIONS=       0.0 SECONDS (       0.0 SEC/ITER)

 FINAL RHF ENERGY IS      -75.9783410663 AFTER  10 ITERATIONS

          ------------
          EIGENVECTORS
          ------------

                      1          2          3          4          5
                  -20.5724    -1.3395    -0.6795    -0.5630    -0.5017
                     A          A          A          A          A   
    1  O  1  S    0.995820  -0.213050   0.000000   0.076769   0.000000
    2  O  1  S    0.021752   0.470475  -0.000000  -0.184864   0.000000
    3  O  1  X    0.001596   0.080509  -0.322448   0.413361   0.000000
    4  O  1  Y    0.000000   0.000000   0.000000   0.000000   0.643847
    5  O  1  Z    0.001339   0.067555   0.384279   0.346851   0.000000
    6  O  1  S   -0.007805   0.492532  -0.000000  -0.306218   0.000000
    7  O  1  X   -0.001546   0.049556  -0.183175   0.301543   0.000000
    8  O  1  Y    0.000000   0.000000   0.000000   0.000000   0.507595
    9  O  1  Z   -0.001297   0.041583   0.218299   0.253025   0.000000
   10  H  2  S    0.000234   0.130302   0.253960   0.151279   0.000000
   11  H  2  S    0.001842  -0.006016   0.138420   0.093436   0.000000
   12  H  3  S    0.000234   0.130302  -0.253960   0.151279   0.000000
   13  H  3  S    0.001842  -0.006016  -0.138420   0.093436   0.000000

                      6          7          8          9         10
                    0.1925     0.2862     1.0196     1.1455     1.1626
                     A          A          A          A          A   
    1  O  1  S   -0.082529   0.000000   0.000000   0.052594   0.000000
    2  O  1  S    0.104023   0.000000  -0.000000  -0.304017   0.000000
    3  O  1  X    0.194782   0.226957  -0.086128  -0.480360   0.000000
    4  O  1  Y   -0.000000   0.000000  -0.000000   0.000000  -0.959952
    5  O  1  Z    0.163441  -0.270477   0.102643  -0.403070   0.000000
    6  O  1  S    1.096209  -0.000000   0.000000   0.304877   0.000000
    7  O  1  X    0.383390   0.510763  -0.346098   0.155461   0.000000
    8  O  1  Y   -0.000000   0.000000  -0.000000   0.000000   1.038457
    9  O  1  Z    0.321703  -0.608703   0.412464   0.130447   0.000000
   10  H  2  S   -0.063358   0.061374  -0.959636   0.840193   0.000000
   11  H  2  S   -0.953100   1.306803   0.650038  -0.594413   0.000000
   12  H  3  S   -0.063358  -0.061374   0.959636   0.840193   0.000000
   13  H  3  S   -0.953100  -1.306803  -0.650038  -0.594413   0.000000

                     11         12         13
                    1.2286     1.3633     1.7099
                     A          A          A   
    1  O  1  S   -0.068675   0.000000   0.051242
    2  O  1  S    0.523133  -0.000000  -1.630286
    3  O  1  X   -0.571918   0.656507  -0.189800
    4  O  1  Y   -0.000000   0.000000  -0.000000
    5  O  1  Z   -0.479896  -0.782395  -0.159261
    6  O  1  S   -0.244527   0.000000   2.621156
    7  O  1  X    0.875245  -0.984228   0.722811
    8  O  1  Y   -0.000000   0.000000  -0.000000
    9  O  1  Z    0.734418   1.172957   0.606511
   10  H  2  S   -0.458669   0.029436  -0.524127
   11  H  2  S    0.083041  -0.814954  -0.539521
   12  H  3  S   -0.458669  -0.029436  -0.524127
   13  H  3  S    0.083041   0.814954  -0.539521
 ...... END OF RHF CALCULATION ......
 STEP CPU TIME =     0.00 TOTAL CPU TIME =        0.0 (    0.0 MIN)
 TOTAL WALL CLOCK TIME=        0.0 SECONDS, CPU UTILIZATION IS 100.00%

     ----------------------------------------------------------------
     PROPERTY VALUES FOR THE RHF   SELF-CONSISTENT FIELD WAVEFUNCTION
     ----------------------------------------------------------------

          -----------------
          ENERGY COMPONENTS
          -----------------

         WAVEFUNCTION NORMALIZATION =       1.0000000000

                ONE ELECTRON ENERGY =    -122.2690480590
                TWO ELECTRON ENERGY =      37.4784750816
           NUCLEAR REPULSION ENERGY =       8.8122319111
                                      ------------------
                       TOTAL ENERGY =     -75.9783410663

 ELECTRON-ELECTRON POTENTIAL ENERGY =      37.4784750816
  NUCLEUS-ELECTRON POTENTIAL ENERGY =    -198.1124032263
   NUCLEUS-NUCLEUS POTENTIAL ENERGY =       8.8122319111
                                      ------------------
             TOTAL POTENTIAL ENERGY =    -151.8216962336
               TOTAL KINETIC ENERGY =      75.8433551673
                 VIRIAL RATIO (V/T) =       2.0017797986

  ...... PI ENERGY ANALYSIS ......

 ENERGY ANALYSIS:
            FOCK ENERGY=    -47.3120937248
          BARE H ENERGY=   -122.2690480590
     ELECTRONIC ENERGY =    -84.7905708919
         KINETIC ENERGY=     75.8433551673
          N-N REPULSION=      8.8122319111
           TOTAL ENERGY=    -75.9783389808
        SIGMA PART(1+2)=    -77.2129745216
               (K,V1,2)=     71.2549898419   -179.3721687989     30.9042044354
           PI PART(1+2)=     -7.5775963703
               (K,V1,2)=      4.5883653254    -18.7402344274      6.5742727317
  SIGMA SKELETON, ERROR=    -68.4007426104      0.0000000000
             MIXED PART= 0.00000E+00 0.00000E+00 0.00000E+00 0.00000E+00
 ...... END OF PI ENERGY ANALYSIS ......

          ---------------------------------------
          MULLIKEN AND LOWDIN POPULATION ANALYSES
          ---------------------------------------

     ATOMIC MULLIKEN POPULATION IN EACH MOLECULAR ORBITAL

                      1          2          3          4          5

                  2.000000   2.000000   2.000000   2.000000   2.000000

    1             1.999448   1.770361   1.272923   1.741033   2.000000
    2             0.000276   0.114820   0.363539   0.129484   0.000000
    3             0.000276   0.114820   0.363539   0.129484   0.000000

               ----- POPULATIONS IN EACH AO -----
                             MULLIKEN      LOWDIN
              1  O  1  S      1.99780     1.99437
              2  O  1  S      0.90885     0.89372
              3  O  1  X      0.85518     0.80469
              4  O  1  Y      1.15689     1.13573
              5  O  1  Z      0.83314     0.77954
              6  O  1  S      1.01231     0.79270
              7  O  1  X      0.60492     0.67445
              8  O  1  Y      0.84311     0.86427
              9  O  1  Z      0.57158     0.64764
             10  H  2  S      0.48627     0.46161
             11  H  2  S      0.12185     0.24483
             12  H  3  S      0.48627     0.46161
             13  H  3  S      0.12185     0.24483

          ----- MULLIKEN ATOMIC OVERLAP POPULATIONS -----
          (OFF-DIAGONAL ELEMENTS NEED TO BE MULTIPLIED BY 2)

             1           2           3

    1    8.2879993
    2    0.2478824   0.3923008
    3    0.2478824  -0.0320652   0.3923008

          TOTAL MULLIKEN AND LOWDIN ATOMIC POPULATIONS
       ATOM         MULL.POP.    CHARGE          LOW.POP.     CHARGE
    1 O             8.783764   -0.783764         8.587115   -0.587115
    2 H             0.608118    0.391882         0.706442    0.293558
    3 H             0.608118    0.391882         0.706442    0.293558

          -------------------------------
          BOND ORDER AND VALENCE ANALYSIS     BOND ORDER THRESHOLD=0.050
          -------------------------------

                   BOND                       BOND                       BOND
  ATOM PAIR DIST  ORDER      ATOM PAIR DIST  ORDER      ATOM PAIR DIST  ORDER
    1   2  1.000  0.809        1   3  1.000  0.809

                       TOTAL       BONDED        FREE
      ATOM            VALENCE     VALENCE     VALENCE
    1 O                 1.619       1.619      -0.000
    2 H                 0.809       0.809       0.000
    3 H                 0.809       0.809      -0.000

          ---------------------
          ELECTROSTATIC MOMENTS
          ---------------------

 POINT   1           X           Y           Z (BOHR)    CHARGE
                 0.104138    0.000000    0.087382       -0.00 (A.U.)
         DX          DY          DZ         /D/  (DEBYE)
     2.082359    0.000000    1.747307    2.718326
 ...... END OF PROPERTY EVALUATION ......
 STEP CPU TIME =     0.00 TOTAL CPU TIME =        0.0 (    0.0 MIN)
 TOTAL WALL CLOCK TIME=        0.0 SECONDS, CPU UTILIZATION IS 100.00%

 **************************************************************
 *                                                            *
 *         ENTERING VB2000 INTERFACED INTO GAMESS(US)         *
 *                                                            *
 **************************************************************

 **************************************************************
 *                                                            *
 *                        V B 2 0 0 0                         *
 *                                                            *
 *       An ab initio Valence-Bond Program Based on the       *
 *           Generalized Product Function Method and          *
 *                   the Algebrant Algorithm                  *
 *                                                            *
 *                   Version 2.7 October 2013                 *
 *                      GAMESS(US) Version                    *
 *                     Compiler: gfortran                     *
 *                                                            *
 *         Jiabo Li*, Brian Duke** and Roy McWeeny***         *
 *                                                            *
 *        * SciNet Technologies, 9943 Fieldthorn St.,         *
 *                   San Diego, CA 92127, USA                 *
 *                                                            *
 *  ** Monash University Institute of Pharmaceutical Sciences,*
 *     381 Royal Pde, Parkville, Victoria, 3052, Australia    *
 *                                                            *
 * *** Department of Chemistry, University of Pisa,           *
 *     56100 Pisa, Italy                                      *
 *                                                            *
 *  Reference for the software:                               *
 *     Jiabo Li, Brian Duke, and Roy McWeeny, VB2000 Version  *
 *     2.7, SciNet Technologies, San Diego, CA, 2013          *
 *     URL: http://www.scinetec.com or http://www.vb2000.net  *
 *                                                            *
 *  References for the theory:                                *
 *     General:                                               *
 *     Jiabo Li, and Roy McWeeny, "VB2000: Pushing Valence    *
 *     Bond Theory to New Limits", Int. J. Quantum Chem.,     *
 *     89(2002)208-216.                                       *
 *                                                            *
 *     Spin densities:-                                       *
 *     Jiabo Li, Brian J. Duke, Thomas M. Klapoetke, and Roy  *
 *     McWeeny, Spin-Density of Spin-Free Valence Bond Wave   *
 *     Functions and Its Implementation in VB2000. J. Theor.  *
 *     Comp. Chem. 7(2008)853-867.                            *
 *                                                            *
 *     Spin coupled - n electrons in m orbitals:-             *
 *     Peter B. Karadakov, David L. Cooper, Brian J. Duke,    *
 *     and Jiabo Li, Spin-Coupled Theory for N Electrons in   *
 *     M Orbitals Active Spaces,  J. Phys. Chem. A, 116,      *
 *     7238 - 7244, 2012                                      *
 *                                                            *
 *  Copyright (C) 2000-2013 by SciNet Technologies            *
 **************************************************************

 JOB NAME IS exam-vb12                                                       

 VB2000 DIRECTORY IS: /home/brian/qchem/gamess/vb2000                                                 
 MAXIMUM MEMORY USE IS:     6500000
 THIS IS TAKEN AS THE MAXIMUM OF THE UNUSED MEMORY REQUESTED
 IN GAMESS $SYSTEM BLOCK AND MEMORY REQUESTED IN VB2000 DATA

 Input of molecule
 =================
 #! VB(4)/6-31G PRINTALL                                                         
                                                                                 
 Title: Water 6-31G VB2000 Test                                                         


 MACROITERATION CONVERGENCE TOLERANCE TIGHTENED
 TO 10.00**(-7) FOR GEOMETRY OPTIMIZATION.

 Charge =  0 Multiplicity =  1

 ATOM      ATOMIC                      COORDINATES (ANGS)
           CHARGE         X                   Y                   Z
 O           8.0     0.0000000000        0.0000000000        0.0000000000
 H           1.0     0.0000000000        0.0000000000        0.9999999990
 H           1.0     0.9848077522        0.0000000000       -0.1736481775

 Hartree-Fock Energy from Gamess run =     -75.978341066288

 Basis set size =   13

                    PARAMETER LIMIT VALUES
 Max. no. of atoms                    MAXCEN =   200
 Max. no. of basis functions          MAXBFN =   726
 Max. no. of shells                   MAXSHL =   500
 Max. no. of total primitives         MAXEXP =  1000
 Max. no. of primitives per orbital   MAXPRM =    15
 Max. no. of atoms * no. of orbitals  MAXNAB = 72600
 Increase max basis set size by       NEXTRA =    20
 Max. size for Rumer data             MAXST1 = 33334
 Max. no. of orbitals in group        MAXNOB =   200
 Max. no. of CUBE orbitals            MAXCUB =   100
 Max. no. of groups                   MAXGRP =    99

 BASIS IN $BASIS IS N31      WITH IGAUSS = 6

 VBO LIB IS: /home/brian/qchem/gamess/vb2000/VBOLIB/VBOLIB6-31G                              

 Molecular orbitals by HF method
 ===============================================================================
 MO#                       1         2         3         4         5         6
 E(a.u.)             -20.572    -1.340    -0.680    -0.563    -0.502     0.193
 -------------------------------------------------------------------------------

   1  1  O     s     0.99582  -0.21305   0.00000   0.07677   0.00000   0.08253
   2  1  O     s     0.02175   0.47047  -0.00000  -0.18486   0.00000  -0.10402
   3  1  O     x     0.00160   0.08051  -0.32245   0.41336   0.00000  -0.19478
   4  1  O     y     0.00000   0.00000   0.00000   0.00000   0.64385   0.00000
   5  1  O     z     0.00134   0.06755   0.38428   0.34685   0.00000  -0.16344
   6  1  O     s    -0.00780   0.49253  -0.00000  -0.30622   0.00000  -1.09621
   7  1  O     x    -0.00155   0.04956  -0.18317   0.30154   0.00000  -0.38339
   8  1  O     y     0.00000   0.00000   0.00000   0.00000   0.50760   0.00000
   9  1  O     z    -0.00130   0.04158   0.21830   0.25303   0.00000  -0.32170
  10  2  H     s     0.00023   0.13030   0.25396   0.15128   0.00000   0.06336
  11  2  H     s     0.00184  -0.00602   0.13842   0.09344   0.00000   0.95310
  12  3  H     s     0.00023   0.13030  -0.25396   0.15128   0.00000   0.06336
  13  3  H     s     0.00184  -0.00602  -0.13842   0.09344   0.00000   0.95310

 MO#                       7         8         9        10
 E(a.u.)               0.286     1.020     1.145     1.163
 -------------------------------------------------------------------------------

   1  1  O     s     0.00000  -0.00000   0.05259   0.00000
   2  1  O     s     0.00000   0.00000  -0.30402   0.00000
   3  1  O     x     0.22696   0.08613  -0.48036   0.00000
   4  1  O     y     0.00000   0.00000   0.00000  -0.95995
   5  1  O     z    -0.27048  -0.10264  -0.40307   0.00000
   6  1  O     s    -0.00000  -0.00000   0.30488   0.00000
   7  1  O     x     0.51076   0.34610   0.15546   0.00000
   8  1  O     y     0.00000   0.00000   0.00000   1.03846
   9  1  O     z    -0.60870  -0.41246   0.13045   0.00000
  10  2  H     s     0.06137   0.95964   0.84019   0.00000
  11  2  H     s     1.30680  -0.65004  -0.59441   0.00000
  12  3  H     s    -0.06137  -0.95964   0.84019   0.00000
  13  3  H     s    -1.30680   0.65004  -0.59441   0.00000


 Localized molecular orbitals and the bond labels
 ===============================================================================
 LMO#                      1         2         3         4         5
 E(a.u.)             -20.357    -1.120    -0.502    -0.839    -0.839
 Bond Label            1:(0)     1:(1)     1:(2)    3-1(1)    2-1(1)
 -------------------------------------------------------------------------------

   1  1  O     s     1.01416  -0.10725  -0.00001   0.03816  -0.03816
   2  1  O     s    -0.03175   0.46047  -0.00001  -0.14655   0.14655
   3  1  O     x     0.00911  -0.23900   0.00000  -0.47311   0.01709
   4  1  O     y     0.00001   0.00001   0.64385   0.00000  -0.00000
   5  1  O     z     0.00765  -0.20054   0.00000   0.06606   0.47739
   6  1  O     s    -0.06786   0.55956  -0.00001  -0.09672   0.09672
   7  1  O     x     0.00486  -0.18097   0.00000  -0.30361   0.04456
   8  1  O     y     0.00000   0.00001   0.50760   0.00000  -0.00000
   9  1  O     z     0.00408  -0.15185   0.00000   0.00829   0.30044
  10  2  H     s    -0.00697  -0.01753   0.00000   0.03903   0.32013
  11  2  H     s     0.00592  -0.07068   0.00000   0.05464   0.14111
  12  3  H     s    -0.00697  -0.01753   0.00000  -0.32013  -0.03903
  13  3  H     s     0.00592  -0.07068   0.00000  -0.14111  -0.05464


 Mulliken population of localized molecular orbitals
 ===============================================================================
 LMO#                      1         2         3         4         5
 E(a.u.)             -20.357    -1.120    -0.502    -0.839    -0.839
 Bond Label            1:(0)     1:(1)     1:(2)    3-1(1)    2-1(1)
 -------------------------------------------------------------------------------

   1         O       1.99955   2.09401   2.00000   1.34510   1.34510
   2         H       0.00022  -0.04700  -0.00000  -0.01934   0.67423
   3         H       0.00022  -0.04700  -0.00000   0.67423  -0.01934


 PARTITIONING OF LMOs INTO GROUPS ($LMOGRP)
 =======================================================================
 LMO#     1  2  3  4  5
 Group#   1  1  1  2  2
 Split    0  0  0  1  1




 Initial guess of orbitals
 ===============================================================================
 ORBITAL#                  1         2         3         4         5         6
 Bond Label            1:(0)     1:(1)     1:(2)    3-1(1)    3-1(1)    2-1(1)
 -------------------------------------------------------------------------------

   1  1  O     s     1.01416  -0.10725  -0.00001   0.06067  -0.01595  -0.06067
   2  1  O     s    -0.03175   0.46047  -0.00001  -0.24060   0.08386   0.24060
   3  1  O     x     0.00911  -0.23900   0.00000  -0.64256  -0.04355   0.00530
   4  1  O     y     0.00001   0.00001   0.64385   0.00000   0.00000  -0.00000
   5  1  O     z     0.00765  -0.20054   0.00000   0.10792  -0.03654   0.65154
   6  1  O     s    -0.06786   0.55956  -0.00001  -0.17865   0.10180   0.17865
   7  1  O     x     0.00486  -0.18097   0.00000  -0.41021  -0.03298   0.04819
   8  1  O     y     0.00000   0.00001   0.50760   0.00000   0.00000  -0.00000
   9  1  O     z     0.00408  -0.15185   0.00000   0.02339  -0.02768   0.40804
  10  2  H     s    -0.00697  -0.01753   0.00000   0.00137  -0.00322  -0.00137
  11  2  H     s     0.00592  -0.07068   0.00000   0.00550  -0.01287  -0.00550
  12  3  H     s    -0.00697  -0.01753   0.00000   0.00137  -0.76626  -0.00137
  13  3  H     s     0.00592  -0.07068   0.00000   0.00550  -0.34922  -0.00550

 ORBITAL#                  7
 Bond Label           2-1(1)
 -------------------------------------------------------------------------------

   1  1  O     s     0.01595
   2  1  O     s    -0.08386
   3  1  O     x     0.04355
   4  1  O     y    -0.00000
   5  1  O     z     0.03654
   6  1  O     s    -0.10180
   7  1  O     x     0.03298
   8  1  O     y    -0.00000
   9  1  O     z     0.02768
  10  2  H     s     0.76626
  11  2  H     s     0.34922
  12  3  H     s     0.00322
  13  3  H     s     0.01287


      GENERAL CONTROLS ($GENCTL)
 ====================================
 Number of electron groups       =    2
 Maximum macro-iterations        =   24
 Energy threshold           = 10**(- 7)
 Restart calculation(0/1/2)      =    0
 Group#                     1  2
 Num. of electrons          6  4
 Num. of spins              0  0
 Num. of orbitals           3  4
 Method#                    1  2

 SYMBOLIC VB STRUCTURE(S) OF GROUP  2
 STR. NO.       RUMER PATTERN  
    1           1  2   3  4


 MAP FILE IS: /home/brian/qchem/gamess/vb2000/MAP/MAP0400t                                    

 VB-ORBITAL OPTIMIZATION OF GROUP  2 ...
 GROUP =  2  ITER =  1 CMAX =  0.15000000000000
 GROUP =  2  ITER =  2 CMAX =  0.15162000178608
 GROUP =  2  ITER =  3 CMAX =  0.09568874865991
 GROUP =  2  ITER =  4 CMAX =  0.04664287962206
 GROUP =  2  ITER =  5 CMAX =  0.02597751371894
 GROUP =  2  ITER =  6 CMAX =  0.00889444287991
 GROUP =  2  ITER =  7 CMAX =  0.00044028724398

 ENERGY AND DIFF OF MACROITER    1 =    -76.01873770    -76.01873770

 VB-ORBITAL OPTIMIZATION OF GROUP  2 ...
 GROUP =  2  ITER =  1 CMAX =  0.01805317150336
 GROUP =  2  ITER =  2 CMAX =  0.04219156252361
 GROUP =  2  ITER =  3 CMAX =  0.00343205421534
 GROUP =  2  ITER =  4 CMAX =  0.01507793571881
 GROUP =  2  ITER =  5 CMAX =  0.00216232332458
 GROUP =  2  ITER =  6 CMAX =  0.00003796755326

 ENERGY AND DIFF OF MACROITER    2 =    -76.02540683     -0.00666913

 VB-ORBITAL OPTIMIZATION OF GROUP  2 ...
 GROUP =  2  ITER =  1 CMAX =  0.00672675259531
 GROUP =  2  ITER =  2 CMAX =  0.01510601966685
 GROUP =  2  ITER =  3 CMAX =  0.00223026689617
 GROUP =  2  ITER =  4 CMAX =  0.00004996399509

 ENERGY AND DIFF OF MACROITER    3 =    -76.02691307     -0.00150624

 VB-ORBITAL OPTIMIZATION OF GROUP  2 ...
 GROUP =  2  ITER =  1 CMAX =  0.00184453800100
 GROUP =  2  ITER =  2 CMAX =  0.00210327402982
 GROUP =  2  ITER =  3 CMAX =  0.00011888827241

 ENERGY AND DIFF OF MACROITER    4 =    -76.02699741     -0.00008434

 VB-ORBITAL OPTIMIZATION OF GROUP  2 ...
 GROUP =  2  ITER =  1 CMAX =  0.00065475811668

 ENERGY AND DIFF OF MACROITER    5 =    -76.02702044     -0.00002302

 VB-ORBITAL OPTIMIZATION OF GROUP  2 ...
 GROUP =  2  ITER =  1 CMAX =  0.00071696002273

 ENERGY AND DIFF OF MACROITER    6 =    -76.02702726     -0.00000683

 VB-ORBITAL OPTIMIZATION OF GROUP  2 ...
 GROUP =  2  ITER =  1 CMAX =  0.00056181869031

 ENERGY AND DIFF OF MACROITER    7 =    -76.02702954     -0.00000227

 VB-ORBITAL OPTIMIZATION OF GROUP  2 ...
 GROUP =  2  ITER =  1 CMAX =  0.00042160761985

 ENERGY AND DIFF OF MACROITER    8 =    -76.02703035     -0.00000082

 VB-ORBITAL OPTIMIZATION OF GROUP  2 ...
 GROUP =  2  ITER =  1 CMAX =  0.00029113862888

 ENERGY AND DIFF OF MACROITER    9 =    -76.02703066     -0.00000031

 VB-ORBITAL OPTIMIZATION OF GROUP  2 ...
 GROUP =  2  ITER =  1 CMAX =  0.00020503767631

 ENERGY AND DIFF OF MACROITER   10 =    -76.02703078     -0.00000012

 VB-ORBITAL OPTIMIZATION OF GROUP  2 ...
 GROUP =  2  ITER =  1 CMAX =  0.00014233831854

 ENERGY AND DIFF OF MACROITER   11 =    -76.02703083     -0.00000005

 VB-ORBITAL OPTIMIZATION OF GROUP  2 ...
 GROUP =  2  ITER =  1 CMAX =  0.00010243750318


 OVERLAP MATRIX OF VB ORBITALS FOR GROUP   2

        1      2      3      4
 ===============================
   1 1.0000
   2 0.7930 1.0000
   3-0.1760-0.1066 1.0000
   4-0.1066-0.0304 0.7930 1.0000

 ENERGY AND DIFF OF MACROITER   12 =    -76.02703084     -0.00000002


 MULLIKEN CHARGES ON ATOMS
 -------------------------
  ATOM             CHARGE 

    1            -0.71449
    2             0.35725
    3             0.35725

 -------------------------


 ORBITALS OF EACH ELECTRON GROUP IN AO BASIS: ORBITAL(GROUP)
 ===========================================================================
    Orbital#             1         2         3         4         5         6
      Group#             1         1         1         2         2         2
 ---------------------------------------------------------------------------
  AO# LABELS
   1  1  O     s  -1.00877  -0.15148   0.00001   0.05800   0.01318  -0.05800
   2  1  O     s   0.01270   0.49646  -0.00000  -0.17213   0.02098   0.17213
   3  1  O     x  -0.01192  -0.15794   0.00000  -0.71887  -0.23929   0.09467
   4  1  O     y  -0.00001  -0.00001  -0.64384   0.00000   0.00000  -0.00000
   5  1  O     z  -0.01000  -0.13252   0.00000   0.03063  -0.00675   0.71327
   6  1  O     s   0.04830   0.58357  -0.00001  -0.06418   0.07284   0.06418
   7  1  O     x  -0.00646  -0.12141   0.00000  -0.32400  -0.27194   0.07583
   8  1  O     y  -0.00001  -0.00000  -0.50760   0.00000   0.00000  -0.00000
   9  1  O     z  -0.00542  -0.10188   0.00000  -0.01987  -0.03950   0.31563
  10  2  H     s   0.00163   0.02253  -0.00000   0.00228   0.03315   0.07799
  11  2  H     s  -0.00589  -0.06008   0.00000   0.01164   0.05151   0.03034
  12  3  H     s   0.00163   0.02253  -0.00000  -0.07799  -0.54526  -0.00228
  13  3  H     s  -0.00589  -0.06008   0.00000  -0.03034  -0.27043  -0.01164

 ===========================================================================
    Orbital#             7
      Group#             2
 ---------------------------------------------------------------------------
  AO# LABELS
   1  1  O     s  -0.01318
   2  1  O     s  -0.02098
   3  1  O     x   0.04820
   4  1  O     y  -0.00000
   5  1  O     z   0.23448
   6  1  O     s  -0.07284
   7  1  O     x   0.08612
   8  1  O     y  -0.00000
   9  1  O     z   0.26095
  10  2  H     s   0.54526
  11  2  H     s   0.27043
  12  3  H     s  -0.03315
  13  3  H     s  -0.05151


 CALCULATION OF POSITION AND EXTENT OF VB ORBITALS

 DEFAULT CENTROIDS AND EXTENTS.

 MOLECULAR GEOMETRY ABOUT CENTER OF MASS

  Atom#   ATOMIC NO.     X        Y        Z
    1         8       -0.0551   0.0000  -0.0462
    2         1       -0.0551   0.0000   0.9538
    3         1        0.9297   0.0000  -0.2199

 CENTROIDS OF CHARGE FOR EACH VB GROUP & DISTANCES FROM 3 ATOMS

                                                  DISTANCES FROM ATOMS
 Orbital#   Group#       X        Y        Z        1        2        3
    4         2        0.1429  -0.0000  -0.0573   0.1983   1.0303   0.8034
    5         2        0.6934  -0.0000  -0.1619   0.7574   1.3435   0.2433
    6         2       -0.0316  -0.0000   0.1507   0.1983   0.8034   1.0303
    7         2       -0.0391  -0.0000   0.7110   0.7574   0.2433   1.3435

 EXTENT OF ORBITAL MEASURED BY (<R**2>)

 Orbital#   Group#     <X**2>   <Y**2>   <Z**2>   <R**2> Sqrt<R**2>

    4         2        0.2597   0.0938   0.0944   0.4479   0.6692
    5         2        0.3755   0.1504   0.1549   0.6808   0.8251
    6         2        0.0975   0.0938   0.2566   0.4479   0.6692
    7         2        0.1508   0.1504   0.3796   0.6808   0.8251

 WORDS OF DYNAMIC MEMORY USED IN VB2000 CODE ONLY:        8100
 NOTE THAT THIS IS IN ADDITION TO MEMORY USED BY GAMESS
 PRINTED NEAR END OF OUTPUT. ADD THE TWO AMOUNTS TO GIVE
 THE TOTAL MEMORY USED BY THE JOB

 STATISTICS OF CPU TIMES (SECONDS)
 CPU TIME FOR INITIALIZATION        0.000
 CPU TIME FOR MACROITERATION        0.080
 TOTAL CPU TIME                     0.080

 STEP CPU TIME =     0.14 TOTAL CPU TIME =        0.2 (    0.0 MIN)
 TOTAL WALL CLOCK TIME=        0.2 SECONDS, CPU UTILIZATION IS  94.12%

 **************************************************************
 *                                                            *
 *                  ENDING GAMESS(US) VB2000                  *
 *                                                            *
 *  Properties for individual molecular orbitals are correct  *
 *   only for VB modified orbitals in a Hartree-Fock group.   *
 *                                                            *
 **************************************************************

     ----------------------------------
     PROPERTIES FOR THE VB WAVEFUNCTION
     ----------------------------------

          -----------------
          ENERGY COMPONENTS
          -----------------

         WAVEFUNCTION NORMALIZATION =       1.0000000000

                ONE ELECTRON ENERGY =    -122.2188241528
                TWO ELECTRON ENERGY =      37.3795613967
           NUCLEAR REPULSION ENERGY =       8.8122319111
                                      ------------------
                       TOTAL ENERGY =     -76.0270308449

 ELECTRON-ELECTRON POTENTIAL ENERGY =      37.3795613967
  NUCLEUS-ELECTRON POTENTIAL ENERGY =    -198.1994944206
   NUCLEUS-NUCLEUS POTENTIAL ENERGY =       8.8122319111
                                      ------------------
             TOTAL POTENTIAL ENERGY =    -152.0077011128
               TOTAL KINETIC ENERGY =      75.9806702678
                 VIRIAL RATIO (V/T) =       2.0006101628

          ---------------------------------------
          MULLIKEN AND LOWDIN POPULATION ANALYSES
          ---------------------------------------

     ATOMIC MULLIKEN POPULATION IN EACH MOLECULAR ORBITAL

                      1          2          3          4          5

                  2.000000   2.000000   2.000000   2.000000   2.000000

    1             1.999448   1.770361   1.272923   1.741033   2.000000
    2             0.000276   0.114820   0.363539   0.129484   0.000000
    3             0.000276   0.114820   0.363539   0.129484   0.000000

               ----- POPULATIONS IN EACH AO -----
                             MULLIKEN      LOWDIN
              1  O  1  S      1.99782     1.99445
              2  O  1  S      0.91601     0.90161
              3  O  1  X      0.85538     0.80317
              4  O  1  Y      1.15687     1.13572
              5  O  1  Z      0.83517     0.77985
              6  O  1  S      1.00605     0.79279
              7  O  1  X      0.56900     0.65164
              8  O  1  Y      0.84313     0.86428
              9  O  1  Z      0.53506     0.62411
             10  H  2  S      0.50879     0.47688
             11  H  2  S      0.13397     0.24931
             12  H  3  S      0.50879     0.47688
             13  H  3  S      0.13397     0.24931

          ----- MULLIKEN ATOMIC OVERLAP POPULATIONS -----
          (OFF-DIAGONAL ELEMENTS NEED TO BE MULTIPLIED BY 2)

             1           2           3

    1    8.2606873
    2    0.2269025   0.4478252
    3    0.2269025  -0.0319737   0.4478252

          TOTAL MULLIKEN AND LOWDIN ATOMIC POPULATIONS
       ATOM         MULL.POP.    CHARGE          LOW.POP.     CHARGE
    1 O             8.714492   -0.714492         8.547623   -0.547623
    2 H             0.642754    0.357246         0.726189    0.273811
    3 H             0.642754    0.357246         0.726189    0.273811

          -------------------------------
          BOND ORDER AND VALENCE ANALYSIS     BOND ORDER THRESHOLD=0.050
          -------------------------------

                   BOND                       BOND                       BOND
  ATOM PAIR DIST  ORDER      ATOM PAIR DIST  ORDER      ATOM PAIR DIST  ORDER
    1   2  1.000  0.787        1   3  1.000  0.787

                       TOTAL       BONDED        FREE
      ATOM            VALENCE     VALENCE     VALENCE
    1 O                 1.688       1.574       0.114
    2 H                 0.832       0.785       0.047
    3 H                 0.832       0.785       0.047

          ---------------------
          ELECTROSTATIC MOMENTS
          ---------------------

 POINT   1           X           Y           Z (BOHR)    CHARGE
                 0.104138    0.000000    0.087382       -0.00 (A.U.)
         DX          DY          DZ         /D/  (DEBYE)
     1.944430    0.000000    1.631571    2.538273
 ...... END OF PROPERTY EVALUATION ......
 STEP CPU TIME =     0.00 TOTAL CPU TIME =        0.2 (    0.0 MIN)
 TOTAL WALL CLOCK TIME=        0.2 SECONDS, CPU UTILIZATION IS  94.12%
 DDI: Creating Array [0] - 2 x 6 = 12 words.

 COMPUTING THE NUCLEAR GRADIENT BY NUMERIC DIFFERENTIATION
 PROJECTION FINDS   3 TOTALLY SYMMETRIC MODES OUT OF 3N=     9
 SO     6 SINGLE POINT ENERGIES MUST BE COMPUTED TO GET A GRADIENT.

             1           2           3

    1    0.0078378  -0.0024957   1.8556747
    2    0.0000000   0.0000000   0.0000000
    3    0.0007961   1.8905221  -0.3297397
 WORKING ON IMODE=   1 IVIB=1...
 COORDINATES OF ALL ATOMS ARE (ANGS)
   ATOM   CHARGE       X              Y              Z
 ------------------------------------------------------------
 O           8.0   0.0041475747   0.0000000000   0.0004212928
 H           1.0  -0.0013206715   0.0000000000   1.0004212923
 H           1.0   0.9819808494   0.0000000000  -0.1744907633
 ...... END OF ONE-ELECTRON INTEGRALS ......
 STEP CPU TIME =     0.01 TOTAL CPU TIME =        0.2 (    0.0 MIN)
 TOTAL WALL CLOCK TIME=        0.2 SECONDS, CPU UTILIZATION IS 100.00%
 TOTAL NUMBER OF NONZERO TWO-ELECTRON INTEGRALS =                2280
          1 INTEGRAL RECORDS WERE STORED ON DISK FILE  8.
  ...... END OF TWO-ELECTRON INTEGRALS .....
 STEP CPU TIME =     0.00 TOTAL CPU TIME =        0.2 (    0.0 MIN)
 TOTAL WALL CLOCK TIME=        0.2 SECONDS, CPU UTILIZATION IS 100.00%

          --------------------------
                 RHF SCF CALCULATION
          --------------------------
     DENSITY MATRIX CONV=  1.00E-05

 ITER EX DEM     TOTAL ENERGY        E CHANGE  DENSITY CHANGE     ORB. GRAD
          ---------------START SECOND ORDER SCF---------------
   1  0  0      -75.9790192059   -75.9790192059   0.002312249   0.001711696
   2  1  0      -75.9790381534    -0.0000189475   0.001105496   0.000719474
   3  2  0      -75.9790403424    -0.0000021890   0.000276712   0.000211803
   4  3  0      -75.9790406199    -0.0000002774   0.000078547   0.000036473
   5  4  0      -75.9790406364    -0.0000000165   0.000019987   0.000010858
   6  5  0      -75.9790406374    -0.0000000011   0.000006370   0.000003080
   7  6  0      -75.9790406375    -0.0000000001   0.000001342   0.000000727

          -----------------
          DENSITY CONVERGED
          -----------------
     TIME TO FORM FOCK OPERATORS=       0.0 SECONDS (       0.0 SEC/ITER)
     TIME TO SOLVE SCF EQUATIONS=       0.0 SECONDS (       0.0 SEC/ITER)

 FINAL RHF ENERGY IS      -75.9790406375 AFTER   7 ITERATIONS
 ...... END OF RHF CALCULATION ......
 STEP CPU TIME =     0.00 TOTAL CPU TIME =        0.2 (    0.0 MIN)
 TOTAL WALL CLOCK TIME=        0.2 SECONDS, CPU UTILIZATION IS 100.00%

 **************************************************************
 *                                                            *
 *         ENTERING VB2000 INTERFACED INTO GAMESS(US)         *
 *                                                            *
 **************************************************************

 JOB NAME IS exam-vb12                                                       

 VB2000 DIRECTORY IS: /home/brian/qchem/gamess/vb2000                                                 
 MAXIMUM MEMORY USE IS:     6500000
 THIS IS TAKEN AS THE MAXIMUM OF THE UNUSED MEMORY REQUESTED
 IN GAMESS $SYSTEM BLOCK AND MEMORY REQUESTED IN VB2000 DATA

 Input of molecule
 =================
 #! VB(4)/6-31G PRINTALL                                                         
                                                                                 
 Title: Water 6-31G VB2000 Test                                                         


 MACROITERATION CONVERGENCE TOLERANCE TIGHTENED
 TO 10.00**(-7) FOR GEOMETRY OPTIMIZATION.

 Charge =  0 Multiplicity =  1

 ATOM      ATOMIC                      COORDINATES (ANGS)
           CHARGE         X                   Y                   Z
 O           8.0     0.0041475747        0.0000000000        0.0004212928
 H           1.0    -0.0013206715        0.0000000000        1.0004212919
 H           1.0     0.9819808490        0.0000000000       -0.1744907632

 Hartree-Fock Energy from Gamess run =     -75.979040637520

 Basis set size =   13

 BASIS IN $BASIS IS N31      WITH IGAUSS = 6

 VBO LIB IS: /home/brian/qchem/gamess/vb2000/VBOLIB/VBOLIB6-31G                              

 PARTITIONING OF LMOs INTO GROUPS ($LMOGRP)
 =======================================================================
 LMO#     1  2  3  4  5
 Group#   1  1  1  2  2
 Split    0  0  0  1  1




      GENERAL CONTROLS ($GENCTL)
 ====================================
 Number of electron groups       =    2
 Maximum macro-iterations        =   24
 Energy threshold           = 10**(- 7)
 Restart calculation(0/1/2)      =    0
 Group#                     1  2
 Num. of electrons          6  4
 Num. of spins              0  0
 Num. of orbitals           3  4
 Method#                    1  2

 SYMBOLIC VB STRUCTURE(S) OF GROUP  2
 STR. NO.       RUMER PATTERN  
    1           1  2   3  4


 MAP FILE IS: /home/brian/qchem/gamess/vb2000/MAP/MAP0400t                                    

 ENERGY AND DIFF OF MACROITER    1 =    -76.01912468    -76.01912468

 ENERGY AND DIFF OF MACROITER    2 =    -76.02574204     -0.00661736

 ENERGY AND DIFF OF MACROITER    3 =    -76.02724466     -0.00150262

 ENERGY AND DIFF OF MACROITER    4 =    -76.02732802     -0.00008336

 ENERGY AND DIFF OF MACROITER    5 =    -76.02735078     -0.00002275

 ENERGY AND DIFF OF MACROITER    6 =    -76.02735753     -0.00000675

 ENERGY AND DIFF OF MACROITER    7 =    -76.02735977     -0.00000225

 ENERGY AND DIFF OF MACROITER    8 =    -76.02736059     -0.00000081

 ENERGY AND DIFF OF MACROITER    9 =    -76.02736089     -0.00000030

 ENERGY AND DIFF OF MACROITER   10 =    -76.02736101     -0.00000012

 ENERGY AND DIFF OF MACROITER   11 =    -76.02736105     -0.00000005


 OVERLAP MATRIX OF VB ORBITALS FOR GROUP   2

        1      2      3      4
 ===============================
   1 1.0000
   2 0.7956 1.0000
   3-0.1785-0.1075 1.0000
   4-0.1072-0.0298 0.7932 1.0000

 ENERGY AND DIFF OF MACROITER   12 =    -76.02736107     -0.00000002


 MULLIKEN CHARGES ON ATOMS
 -------------------------
  ATOM             CHARGE 

    1            -0.71634
    2             0.35766
    3             0.35868

 -------------------------


 ORBITALS OF EACH ELECTRON GROUP IN AO BASIS: ORBITAL(GROUP)
 ===========================================================================
    Orbital#             1         2         3         4         5         6
      Group#             1         1         1         2         2         2
 ---------------------------------------------------------------------------
  AO# LABELS
   1  1  O     s  -1.00877  -0.15093   0.00001   0.05930   0.01431  -0.05869
   2  1  O     s   0.01271   0.49553  -0.00000  -0.17668   0.01943   0.17396
   3  1  O     x  -0.01213  -0.16073   0.00000  -0.71886  -0.24073   0.09358
   4  1  O     y   0.00001   0.00001   0.64365  -0.00000  -0.00000   0.00000
   5  1  O     z  -0.01010  -0.13386   0.00000   0.02918  -0.00706   0.71282
   6  1  O     s   0.04835   0.58270  -0.00001  -0.06484   0.07032   0.06602
   7  1  O     x  -0.00665  -0.12392   0.00000  -0.32156  -0.27238   0.07595
   8  1  O     y   0.00001   0.00000   0.50781  -0.00000  -0.00000   0.00000
   9  1  O     z  -0.00554  -0.10323   0.00000  -0.02138  -0.04011   0.31558
  10  2  H     s   0.00164   0.02252  -0.00000   0.00251   0.03322   0.07783
  11  2  H     s  -0.00587  -0.05971   0.00000   0.01176   0.05111   0.03010
  12  3  H     s   0.00165   0.02239  -0.00000  -0.07897  -0.54690  -0.00274
  13  3  H     s  -0.00595  -0.06037   0.00000  -0.02994  -0.26498  -0.01192

 ===========================================================================
    Orbital#             7
      Group#             2
 ---------------------------------------------------------------------------
  AO# LABELS
   1  1  O     s  -0.01363
   2  1  O     s  -0.02046
   3  1  O     x   0.04777
   4  1  O     y   0.00000
   5  1  O     z   0.23454
   6  1  O     s  -0.06996
   7  1  O     x   0.08643
   8  1  O     y   0.00000
   9  1  O     z   0.26143
  10  2  H     s   0.54482
  11  2  H     s   0.26955
  12  3  H     s  -0.03387
  13  3  H     s  -0.05171


 WORDS OF DYNAMIC MEMORY USED IN VB2000 CODE ONLY:        8100
 NOTE THAT THIS IS IN ADDITION TO MEMORY USED BY GAMESS
 PRINTED NEAR END OF OUTPUT. ADD THE TWO AMOUNTS TO GIVE
 THE TOTAL MEMORY USED BY THE JOB

 STATISTICS OF CPU TIMES (SECONDS)
 CPU TIME FOR INITIALIZATION        0.000
 CPU TIME FOR MACROITERATION        0.080
 TOTAL CPU TIME                     0.080

 STEP CPU TIME =     0.14 TOTAL CPU TIME =        0.3 (    0.0 MIN)
 TOTAL WALL CLOCK TIME=        0.3 SECONDS, CPU UTILIZATION IS  96.88%

 **************************************************************
 *                                                            *
 *                  ENDING GAMESS(US) VB2000                  *
 *                                                            *
 *  Properties for individual molecular orbitals are correct  *
 *   only for VB modified orbitals in a Hartree-Fock group.   *
 *                                                            *
 **************************************************************
 IMODE=    1 IVIB= 1 E=       -76.0273610739

             1           2           3

    1   -0.0078378   0.0024957   1.8663589
    2    0.0000000   0.0000000   0.0000000
    3   -0.0007961   1.8889299  -0.3265552
 WORKING ON IMODE=   1 IVIB=2...
 COORDINATES OF ALL ATOMS ARE (ANGS)
   ATOM   CHARGE       X              Y              Z
 ------------------------------------------------------------
 O           8.0  -0.0041475747   0.0000000000  -0.0004212928
 H           1.0   0.0013206715   0.0000000000   0.9995787067
 H           1.0   0.9876346558   0.0000000000  -0.1728055919
 ...... END OF ONE-ELECTRON INTEGRALS ......
 STEP CPU TIME =     0.00 TOTAL CPU TIME =        0.3 (    0.0 MIN)
 TOTAL WALL CLOCK TIME=        0.3 SECONDS, CPU UTILIZATION IS  96.88%
 TOTAL NUMBER OF NONZERO TWO-ELECTRON INTEGRALS =                2280
          1 INTEGRAL RECORDS WERE STORED ON DISK FILE  8.
  ...... END OF TWO-ELECTRON INTEGRALS .....
 STEP CPU TIME =     0.00 TOTAL CPU TIME =        0.3 (    0.0 MIN)
 TOTAL WALL CLOCK TIME=        0.3 SECONDS, CPU UTILIZATION IS  96.88%

          --------------------------
                 RHF SCF CALCULATION
          --------------------------
     DENSITY MATRIX CONV=  1.00E-05

 ITER EX DEM     TOTAL ENERGY        E CHANGE  DENSITY CHANGE     ORB. GRAD
          ---------------START SECOND ORDER SCF---------------
   1  0  0      -75.9775484168   -75.9775484168   0.002309883   0.001693588
   2  1  0      -75.9775671764    -0.0000187596   0.001105493   0.000716552
   3  2  0      -75.9775693922    -0.0000022158   0.000269392   0.000209166
   4  3  0      -75.9775696691    -0.0000002769   0.000080207   0.000036700
   5  4  0      -75.9775696867    -0.0000000175   0.000019710   0.000011228
   6  5  0      -75.9775696878    -0.0000000011   0.000006567   0.000003300
   7  6  0      -75.9775696879    -0.0000000001   0.000001432   0.000000777

          -----------------
          DENSITY CONVERGED
          -----------------
     TIME TO FORM FOCK OPERATORS=       0.0 SECONDS (       0.0 SEC/ITER)
     TIME TO SOLVE SCF EQUATIONS=       0.0 SECONDS (       0.0 SEC/ITER)

 FINAL RHF ENERGY IS      -75.9775696879 AFTER   7 ITERATIONS
 ...... END OF RHF CALCULATION ......
 STEP CPU TIME =     0.00 TOTAL CPU TIME =        0.3 (    0.0 MIN)
 TOTAL WALL CLOCK TIME=        0.3 SECONDS, CPU UTILIZATION IS  96.88%

 **************************************************************
 *                                                            *
 *         ENTERING VB2000 INTERFACED INTO GAMESS(US)         *
 *                                                            *
 **************************************************************

 JOB NAME IS exam-vb12                                                       

 VB2000 DIRECTORY IS: /home/brian/qchem/gamess/vb2000                                                 
 MAXIMUM MEMORY USE IS:     6500000
 THIS IS TAKEN AS THE MAXIMUM OF THE UNUSED MEMORY REQUESTED
 IN GAMESS $SYSTEM BLOCK AND MEMORY REQUESTED IN VB2000 DATA

 Input of molecule
 =================
 #! VB(4)/6-31G PRINTALL                                                         
                                                                                 
 Title: Water 6-31G VB2000 Test                                                         


 MACROITERATION CONVERGENCE TOLERANCE TIGHTENED
 TO 10.00**(-7) FOR GEOMETRY OPTIMIZATION.

 Charge =  0 Multiplicity =  1

 ATOM      ATOMIC                      COORDINATES (ANGS)
           CHARGE         X                   Y                   Z
 O           8.0    -0.0041475747        0.0000000000       -0.0004212928
 H           1.0     0.0013206715        0.0000000000        0.9995787062
 H           1.0     0.9876346553        0.0000000000       -0.1728055919

 Hartree-Fock Energy from Gamess run =     -75.977569687857

 Basis set size =   13

 BASIS IN $BASIS IS N31      WITH IGAUSS = 6

 VBO LIB IS: /home/brian/qchem/gamess/vb2000/VBOLIB/VBOLIB6-31G                              

 PARTITIONING OF LMOs INTO GROUPS ($LMOGRP)
 =======================================================================
 LMO#     1  2  3  4  5
 Group#   1  1  1  2  2
 Split    0  0  0  1  1




      GENERAL CONTROLS ($GENCTL)
 ====================================
 Number of electron groups       =    2
 Maximum macro-iterations        =   24
 Energy threshold           = 10**(- 7)
 Restart calculation(0/1/2)      =    0
 Group#                     1  2
 Num. of electrons          6  4
 Num. of spins              0  0
 Num. of orbitals           3  4
 Method#                    1  2

 SYMBOLIC VB STRUCTURE(S) OF GROUP  2
 STR. NO.       RUMER PATTERN  
    1           1  2   3  4


 MAP FILE IS: /home/brian/qchem/gamess/vb2000/MAP/MAP0400t                                    

 ENERGY AND DIFF OF MACROITER    1 =    -76.01828226    -76.01828226

 ENERGY AND DIFF OF MACROITER    2 =    -76.02500884     -0.00672658

 ENERGY AND DIFF OF MACROITER    3 =    -76.02651469     -0.00150585

 ENERGY AND DIFF OF MACROITER    4 =    -76.02660011     -0.00008541

 ENERGY AND DIFF OF MACROITER    5 =    -76.02662343     -0.00002333

 ENERGY AND DIFF OF MACROITER    6 =    -76.02663035     -0.00000692

 ENERGY AND DIFF OF MACROITER    7 =    -76.02663265     -0.00000230

 ENERGY AND DIFF OF MACROITER    8 =    -76.02663347     -0.00000083

 ENERGY AND DIFF OF MACROITER    9 =    -76.02663378     -0.00000031

 ENERGY AND DIFF OF MACROITER   10 =    -76.02663390     -0.00000012

 ENERGY AND DIFF OF MACROITER   11 =    -76.02663395     -0.00000005


 OVERLAP MATRIX OF VB ORBITALS FOR GROUP   2

        1      2      3      4
 ===============================
   1 1.0000
   2 0.7928 1.0000
   3-0.1733-0.1061 1.0000
   4-0.1058-0.0310 0.7903 1.0000

 ENERGY AND DIFF OF MACROITER   12 =    -76.02663397     -0.00000002


 MULLIKEN CHARGES ON ATOMS
 -------------------------
  ATOM             CHARGE 

    1            -0.71256
    2             0.35685
    3             0.35571

 -------------------------


 ORBITALS OF EACH ELECTRON GROUP IN AO BASIS: ORBITAL(GROUP)
 ===========================================================================
    Orbital#             1         2         3         4         5         6
      Group#             1         1         1         2         2         2
 ---------------------------------------------------------------------------
  AO# LABELS
   1  1  O     s  -1.00877  -0.15203   0.00001   0.05731   0.01273  -0.05670
   2  1  O     s   0.01269   0.49737  -0.00000  -0.17030   0.02149   0.16759
   3  1  O     x  -0.01171  -0.15515   0.00000  -0.09573  -0.04864   0.71886
   4  1  O     y   0.00001   0.00001   0.64404  -0.00000   0.00000   0.00000
   5  1  O     z  -0.00990  -0.13121   0.00000  -0.71371  -0.23441  -0.03215
   6  1  O     s   0.04824   0.58440  -0.00001  -0.06238   0.07569   0.06350
   7  1  O     x  -0.00628  -0.11891   0.00000  -0.07570  -0.08582   0.32641
   8  1  O     y   0.00001   0.00000   0.50739   0.00000  -0.00000   0.00000
   9  1  O     z  -0.00531  -0.10053   0.00000  -0.31567  -0.26047   0.01832
  10  2  H     s   0.00162   0.02254  -0.00000  -0.07814  -0.54568  -0.00207
  11  2  H     s  -0.00592  -0.06044   0.00000  -0.03058  -0.27132  -0.01152
  12  3  H     s   0.00161   0.02267  -0.00000   0.00185   0.03243   0.07701
  13  3  H     s  -0.00583  -0.05975   0.00000   0.01138   0.05130   0.03074

 ===========================================================================
    Orbital#             7
      Group#             2
 ---------------------------------------------------------------------------
  AO# LABELS
   1  1  O     s  -0.01205
   2  1  O     s  -0.02251
   3  1  O     x   0.23783
   4  1  O     y   0.00000
   5  1  O     z   0.00646
   6  1  O     s  -0.07537
   7  1  O     x   0.27144
   8  1  O     y   0.00000
   9  1  O     z   0.03890
  10  2  H     s  -0.03307
  11  2  H     s  -0.05190
  12  3  H     s   0.54363
  13  3  H     s   0.27591


 WORDS OF DYNAMIC MEMORY USED IN VB2000 CODE ONLY:        8100
 NOTE THAT THIS IS IN ADDITION TO MEMORY USED BY GAMESS
 PRINTED NEAR END OF OUTPUT. ADD THE TWO AMOUNTS TO GIVE
 THE TOTAL MEMORY USED BY THE JOB

 STATISTICS OF CPU TIMES (SECONDS)
 CPU TIME FOR INITIALIZATION        0.000
 CPU TIME FOR MACROITERATION        0.090
 TOTAL CPU TIME                     0.090

 STEP CPU TIME =     0.15 TOTAL CPU TIME =        0.5 (    0.0 MIN)
 TOTAL WALL CLOCK TIME=        0.5 SECONDS, CPU UTILIZATION IS 100.00%

 **************************************************************
 *                                                            *
 *                  ENDING GAMESS(US) VB2000                  *
 *                                                            *
 *  Properties for individual molecular orbitals are correct  *
 *   only for VB modified orbitals in a Hartree-Fock group.   *
 *                                                            *
 **************************************************************
 IMODE=    2 IVIB= 1 E=       -76.0266339693

             1           2           3

    1   -0.0000000   0.0049204   1.8560964
    2    0.0000000   0.0000000   0.0000000
    3   -0.0029320   1.8867940  -0.3222835
 WORKING ON IMODE=   2 IVIB=1...
 COORDINATES OF ALL ATOMS ARE (ANGS)
   ATOM   CHARGE       X              Y              Z
 ------------------------------------------------------------
 O           8.0  -0.0000000000   0.0000000000  -0.0015515322
 H           1.0   0.0026037802   0.0000000000   0.9984484673
 H           1.0   0.9822039724   0.0000000000  -0.1705451132
 ...... END OF ONE-ELECTRON INTEGRALS ......
 STEP CPU TIME =     0.00 TOTAL CPU TIME =        0.5 (    0.0 MIN)
 TOTAL WALL CLOCK TIME=        0.5 SECONDS, CPU UTILIZATION IS 100.00%
 TOTAL NUMBER OF NONZERO TWO-ELECTRON INTEGRALS =                2280
          1 INTEGRAL RECORDS WERE STORED ON DISK FILE  8.
  ...... END OF TWO-ELECTRON INTEGRALS .....
 STEP CPU TIME =     0.00 TOTAL CPU TIME =        0.5 (    0.0 MIN)
 TOTAL WALL CLOCK TIME=        0.5 SECONDS, CPU UTILIZATION IS 100.00%

          --------------------------
                 RHF SCF CALCULATION
          --------------------------
     DENSITY MATRIX CONV=  1.00E-05

 ITER EX DEM     TOTAL ENERGY        E CHANGE  DENSITY CHANGE     ORB. GRAD
          ---------------START SECOND ORDER SCF---------------
   1  0  0      -75.9783593807   -75.9783593807   0.001308195   0.000865251
   2  1  0      -75.9783639099    -0.0000045292   0.000393046   0.000221198
   3  2  0      -75.9783642031    -0.0000002932   0.000134440   0.000100694
   4  3  0      -75.9783642530    -0.0000000498   0.000023498   0.000013193
   5  4  0      -75.9783642550    -0.0000000021   0.000009998   0.000003477
   6  5  0      -75.9783642552    -0.0000000001   0.000000699   0.000000419

          -----------------
          DENSITY CONVERGED
          -----------------
     TIME TO FORM FOCK OPERATORS=       0.0 SECONDS (       0.0 SEC/ITER)
     TIME TO SOLVE SCF EQUATIONS=       0.0 SECONDS (       0.0 SEC/ITER)

 FINAL RHF ENERGY IS      -75.9783642552 AFTER   6 ITERATIONS
 ...... END OF RHF CALCULATION ......
 STEP CPU TIME =     0.00 TOTAL CPU TIME =        0.5 (    0.0 MIN)
 TOTAL WALL CLOCK TIME=        0.5 SECONDS, CPU UTILIZATION IS 100.00%

 **************************************************************
 *                                                            *
 *         ENTERING VB2000 INTERFACED INTO GAMESS(US)         *
 *                                                            *
 **************************************************************

 JOB NAME IS exam-vb12                                                       

 VB2000 DIRECTORY IS: /home/brian/qchem/gamess/vb2000                                                 
 MAXIMUM MEMORY USE IS:     6500000
 THIS IS TAKEN AS THE MAXIMUM OF THE UNUSED MEMORY REQUESTED
 IN GAMESS $SYSTEM BLOCK AND MEMORY REQUESTED IN VB2000 DATA

 Input of molecule
 =================
 #! VB(4)/6-31G PRINTALL                                                         
                                                                                 
 Title: Water 6-31G VB2000 Test                                                         


 MACROITERATION CONVERGENCE TOLERANCE TIGHTENED
 TO 10.00**(-7) FOR GEOMETRY OPTIMIZATION.

 Charge =  0 Multiplicity =  1

 ATOM      ATOMIC                      COORDINATES (ANGS)
           CHARGE         X                   Y                   Z
 O           8.0    -0.0000000000        0.0000000000       -0.0015515322
 H           1.0     0.0026037802        0.0000000000        0.9984484668
 H           1.0     0.9822039719        0.0000000000       -0.1705451131

 Hartree-Fock Energy from Gamess run =     -75.978364255154

 Basis set size =   13

 BASIS IN $BASIS IS N31      WITH IGAUSS = 6

 VBO LIB IS: /home/brian/qchem/gamess/vb2000/VBOLIB/VBOLIB6-31G                              

 PARTITIONING OF LMOs INTO GROUPS ($LMOGRP)
 =======================================================================
 LMO#     1  2  3  4  5
 Group#   1  1  1  2  2
 Split    0  0  0  1  1




      GENERAL CONTROLS ($GENCTL)
 ====================================
 Number of electron groups       =    2
 Maximum macro-iterations        =   24
 Energy threshold           = 10**(- 7)
 Restart calculation(0/1/2)      =    0
 Group#                     1  2
 Num. of electrons          6  4
 Num. of spins              0  0
 Num. of orbitals           3  4
 Method#                    1  2

 SYMBOLIC VB STRUCTURE(S) OF GROUP  2
 STR. NO.       RUMER PATTERN  
    1           1  2   3  4


 MAP FILE IS: /home/brian/qchem/gamess/vb2000/MAP/MAP0400t                                    

 ENERGY AND DIFF OF MACROITER    1 =    -76.01863373    -76.01863373

 ENERGY AND DIFF OF MACROITER    2 =    -76.02533313     -0.00669940

 ENERGY AND DIFF OF MACROITER    3 =    -76.02683286     -0.00149973

 ENERGY AND DIFF OF MACROITER    4 =    -76.02691732     -0.00008445

 ENERGY AND DIFF OF MACROITER    5 =    -76.02694031     -0.00002299

 ENERGY AND DIFF OF MACROITER    6 =    -76.02694712     -0.00000681

 ENERGY AND DIFF OF MACROITER    7 =    -76.02694938     -0.00000226

 ENERGY AND DIFF OF MACROITER    8 =    -76.02695019     -0.00000081

 ENERGY AND DIFF OF MACROITER    9 =    -76.02695050     -0.00000030

 ENERGY AND DIFF OF MACROITER   10 =    -76.02695062     -0.00000012

 ENERGY AND DIFF OF MACROITER   11 =    -76.02695066     -0.00000005


 OVERLAP MATRIX OF VB ORBITALS FOR GROUP   2

        1      2      3      4
 ===============================
   1 1.0000
   2 0.7942 1.0000
   3-0.1751-0.1073 1.0000
   4-0.1071-0.0317 0.7929 1.0000

 ENERGY AND DIFF OF MACROITER   12 =    -76.02695068     -0.00000002


 MULLIKEN CHARGES ON ATOMS
 -------------------------
  ATOM             CHARGE 

    1            -0.71374
    2             0.35660
    3             0.35714

 -------------------------


 ORBITALS OF EACH ELECTRON GROUP IN AO BASIS: ORBITAL(GROUP)
 ===========================================================================
    Orbital#             1         2         3         4         5         6
      Group#             1         1         1         2         2         2
 ---------------------------------------------------------------------------
  AO# LABELS
   1  1  O     s  -1.00876   0.15164   0.00001   0.05803   0.01337  -0.05772
   2  1  O     s   0.01264  -0.49655   0.00001  -0.17260   0.02067   0.17122
   3  1  O     x  -0.01191   0.15792  -0.00000  -0.71925  -0.23995   0.09368
   4  1  O     y   0.00001   0.00001   0.64385  -0.00000   0.00000  -0.00000
   5  1  O     z  -0.00996   0.13200  -0.00000   0.03037  -0.00707   0.71350
   6  1  O     s   0.04825  -0.58368   0.00001  -0.06322   0.07354   0.06381
   7  1  O     x  -0.00645   0.12140  -0.00000  -0.32294  -0.27155   0.07526
   8  1  O     y   0.00000   0.00001   0.50759   0.00000  -0.00000  -0.00000
   9  1  O     z  -0.00539   0.10149  -0.00000  -0.01998  -0.03936   0.31589
  10  2  H     s   0.00163  -0.02260   0.00000   0.00180   0.03273   0.07807
  11  2  H     s  -0.00587   0.05987  -0.00000   0.01182   0.05183   0.03046
  12  3  H     s   0.00163  -0.02253   0.00000  -0.07865  -0.54656  -0.00192
  13  3  H     s  -0.00591   0.06022  -0.00000  -0.03038  -0.26871  -0.01190

 ===========================================================================
    Orbital#             7
      Group#             2
 ---------------------------------------------------------------------------
  AO# LABELS
   1  1  O     s  -0.01302
   2  1  O     s  -0.02119
   3  1  O     x   0.04812
   4  1  O     y  -0.00000
   5  1  O     z   0.23441
   6  1  O     s  -0.07336
   7  1  O     x   0.08572
   8  1  O     y  -0.00000
   9  1  O     z   0.26067
  10  2  H     s   0.54551
  11  2  H     s   0.27103
  12  3  H     s  -0.03306
  13  3  H     s  -0.05214


 WORDS OF DYNAMIC MEMORY USED IN VB2000 CODE ONLY:        8100
 NOTE THAT THIS IS IN ADDITION TO MEMORY USED BY GAMESS
 PRINTED NEAR END OF OUTPUT. ADD THE TWO AMOUNTS TO GIVE
 THE TOTAL MEMORY USED BY THE JOB

 STATISTICS OF CPU TIMES (SECONDS)
 CPU TIME FOR INITIALIZATION        0.000
 CPU TIME FOR MACROITERATION        0.080
 TOTAL CPU TIME                     0.080

 STEP CPU TIME =     0.14 TOTAL CPU TIME =        0.6 (    0.0 MIN)
 TOTAL WALL CLOCK TIME=        0.6 SECONDS, CPU UTILIZATION IS 100.00%

 **************************************************************
 *                                                            *
 *                  ENDING GAMESS(US) VB2000                  *
 *                                                            *
 *  Properties for individual molecular orbitals are correct  *
 *   only for VB modified orbitals in a Hartree-Fock group.   *
 *                                                            *
 **************************************************************
 IMODE=    3 IVIB= 1 E=       -76.0269506829

             1           2           3

    1    0.0000000  -0.0049204   1.8659372
    2    0.0000000   0.0000000   0.0000000
    3    0.0029320   1.8926580  -0.3340114
 WORKING ON IMODE=   2 IVIB=2...
 COORDINATES OF ALL ATOMS ARE (ANGS)
   ATOM   CHARGE       X              Y              Z
 ------------------------------------------------------------
 O           8.0   0.0000000000   0.0000000000   0.0015515322
 H           1.0  -0.0026037802   0.0000000000   1.0015515317
 H           1.0   0.9874115328   0.0000000000  -0.1767512420
 ...... END OF ONE-ELECTRON INTEGRALS ......
 STEP CPU TIME =     0.00 TOTAL CPU TIME =        0.6 (    0.0 MIN)
 TOTAL WALL CLOCK TIME=        0.6 SECONDS, CPU UTILIZATION IS 100.00%
 TOTAL NUMBER OF NONZERO TWO-ELECTRON INTEGRALS =                2280
          1 INTEGRAL RECORDS WERE STORED ON DISK FILE  8.
  ...... END OF TWO-ELECTRON INTEGRALS .....
 STEP CPU TIME =     0.00 TOTAL CPU TIME =        0.6 (    0.0 MIN)
 TOTAL WALL CLOCK TIME=        0.6 SECONDS, CPU UTILIZATION IS  98.36%

          --------------------------
                 RHF SCF CALCULATION
          --------------------------
     DENSITY MATRIX CONV=  1.00E-05

 ITER EX DEM     TOTAL ENERGY        E CHANGE  DENSITY CHANGE     ORB. GRAD
          ---------------START SECOND ORDER SCF---------------
   1  0  0      -75.9782806036   -75.9782806036   0.001298588   0.000861939
   2  1  0      -75.9782850867    -0.0000044831   0.000392546   0.000226527
   3  2  0      -75.9782853873    -0.0000003006   0.000131477   0.000100838
   4  3  0      -75.9782854372    -0.0000000499   0.000023491   0.000013608
   5  4  0      -75.9782854393    -0.0000000021   0.000010233   0.000003602
   6  5  0      -75.9782854395    -0.0000000002   0.000000742   0.000000426
   7  6  0      -75.9782854395    -0.0000000000   0.000000406   0.000000161

          -----------------
          DENSITY CONVERGED
          -----------------
[...]
 **************************************************************
 IMODE=    2 IVIB= 2 E=       -76.0293027985

             1           2           3

    1    0.0677047  -0.0619245   1.8552367
    2    0.0000000  -0.0000000   0.0000000
    3    0.0497286   1.9013805  -0.3895306
 WORKING ON IMODE=   3 IVIB=2...
 COORDINATES OF ALL ATOMS ARE (ANGS)
   ATOM   CHARGE       X              Y              Z
 ------------------------------------------------------------
 O           8.0   0.0358277734   0.0000000000   0.0263152343
 H           1.0  -0.0327690571  -0.0000000000   1.0061673222
 H           1.0   0.9817490363   0.0000000000  -0.2061307346
 ...... END OF ONE-ELECTRON INTEGRALS ......
 STEP CPU TIME =     0.00 TOTAL CPU TIME =        6.9 (    0.1 MIN)
 TOTAL WALL CLOCK TIME=        7.0 SECONDS, CPU UTILIZATION IS  99.71%
 TOTAL NUMBER OF NONZERO TWO-ELECTRON INTEGRALS =                2280
          1 INTEGRAL RECORDS WERE STORED ON DISK FILE  8.
  ...... END OF TWO-ELECTRON INTEGRALS .....
 STEP CPU TIME =     0.00 TOTAL CPU TIME =        6.9 (    0.1 MIN)
 TOTAL WALL CLOCK TIME=        7.0 SECONDS, CPU UTILIZATION IS  99.71%

          --------------------------
                 RHF SCF CALCULATION
          --------------------------
     DENSITY MATRIX CONV=  1.00E-05

 ITER EX DEM     TOTAL ENERGY        E CHANGE  DENSITY CHANGE     ORB. GRAD
          ---------------START SECOND ORDER SCF---------------
   1  0  0      -75.9836044097   -75.9836044097   0.002397002   0.002028114
   2  1  0      -75.9836257514    -0.0000213417   0.001037636   0.000669810
   3  2  0      -75.9836279114    -0.0000021600   0.000280311   0.000213653
   4  3  0      -75.9836281952    -0.0000002838   0.000079655   0.000034430
   5  4  0      -75.9836282105    -0.0000000152   0.000018220   0.000010271
   6  5  0      -75.9836282114    -0.0000000009   0.000005695   0.000002427
   7  6  0      -75.9836282115    -0.0000000001   0.000001335   0.000000734

          -----------------
          DENSITY CONVERGED
          -----------------
     TIME TO FORM FOCK OPERATORS=       0.0 SECONDS (       0.0 SEC/ITER)
     TIME TO SOLVE SCF EQUATIONS=       0.0 SECONDS (       0.0 SEC/ITER)

 FINAL RHF ENERGY IS      -75.9836282115 AFTER   7 ITERATIONS
 ...... END OF RHF CALCULATION ......
 STEP CPU TIME =     0.00 TOTAL CPU TIME =        6.9 (    0.1 MIN)
 TOTAL WALL CLOCK TIME=        7.0 SECONDS, CPU UTILIZATION IS  99.71%

 **************************************************************
 *                                                            *
 *         ENTERING VB2000 INTERFACED INTO GAMESS(US)         *
 *                                                            *
 **************************************************************

 JOB NAME IS exam-vb12                                                       

 VB2000 DIRECTORY IS: /home/brian/qchem/gamess/vb2000                                                 
 MAXIMUM MEMORY USE IS:     6500000
 THIS IS TAKEN AS THE MAXIMUM OF THE UNUSED MEMORY REQUESTED
 IN GAMESS $SYSTEM BLOCK AND MEMORY REQUESTED IN VB2000 DATA

 Input of molecule
 =================
 #! VB(4)/6-31G PRINTALL                                                         
                                                                                 
 Title: Water 6-31G VB2000 Test                                                         


 MACROITERATION CONVERGENCE TOLERANCE TIGHTENED
 TO 10.00**(-7) FOR GEOMETRY OPTIMIZATION.

 Charge =  0 Multiplicity =  1

 ATOM      ATOMIC                      COORDINATES (ANGS)
           CHARGE         X                   Y                   Z
 O           8.0     0.0358277734        0.0000000000        0.0263152343
 H           1.0    -0.0327690571       -0.0000000000        1.0061673218
 H           1.0     0.9817490358        0.0000000000       -0.2061307345

 Hartree-Fock Energy from Gamess run =     -75.983628211471

 Basis set size =   13

 BASIS IN $BASIS IS N31      WITH IGAUSS = 6

 VBO LIB IS: /home/brian/qchem/gamess/vb2000/VBOLIB/VBOLIB6-31G                              

 PARTITIONING OF LMOs INTO GROUPS ($LMOGRP)
 =======================================================================
 LMO#     1  2  3  4  5
 Group#   1  1  1  2  2
 Split    0  0  0  1  1




      GENERAL CONTROLS ($GENCTL)
 ====================================
 Number of electron groups       =    2
 Maximum macro-iterations        =   24
 Energy threshold           = 10**(- 7)
 Restart calculation(0/1/2)      =    0
 Group#                     1  2
 Num. of electrons          6  4
 Num. of spins              0  0
 Num. of orbitals           3  4
 Method#                    1  2

 SYMBOLIC VB STRUCTURE(S) OF GROUP  2
 STR. NO.       RUMER PATTERN  
    1           1  2   3  4


 MAP FILE IS: /home/brian/qchem/gamess/vb2000/MAP/MAP0400t                                    

 ENERGY AND DIFF OF MACROITER    1 =    -76.02163216    -76.02163216

 ENERGY AND DIFF OF MACROITER    2 =    -76.02757394     -0.00594178

 ENERGY AND DIFF OF MACROITER    3 =    -76.02919550     -0.00162155

 ENERGY AND DIFF OF MACROITER    4 =    -76.02927205     -0.00007656

 ENERGY AND DIFF OF MACROITER    5 =    -76.02929313     -0.00002107

 ENERGY AND DIFF OF MACROITER    6 =    -76.02929943     -0.00000630

 ENERGY AND DIFF OF MACROITER    7 =    -76.02930154     -0.00000211

 ENERGY AND DIFF OF MACROITER    8 =    -76.02930231     -0.00000077

 ENERGY AND DIFF OF MACROITER    9 =    -76.02930260     -0.00000029

 ENERGY AND DIFF OF MACROITER   10 =    -76.02930272     -0.00000012

 ENERGY AND DIFF OF MACROITER   11 =    -76.02930277     -0.00000005


 OVERLAP MATRIX OF VB ORBITALS FOR GROUP   2

        1      2      3      4
 ===============================
   1 1.0000
   2 0.8045 1.0000
   3 0.2034 0.1089 1.0000
   4 0.1083 0.0189 0.8017 1.0000

 ENERGY AND DIFF OF MACROITER   12 =    -76.02930280     -0.00000002


 MULLIKEN CHARGES ON ATOMS
 -------------------------
  ATOM             CHARGE 

    1            -0.73962
    2             0.36950
    3             0.37012

 -------------------------


 ORBITALS OF EACH ELECTRON GROUP IN AO BASIS: ORBITAL(GROUP)
 ===========================================================================
    Orbital#             1         2         3         4         5         6
      Group#             1         1         1         2         2         2
 ---------------------------------------------------------------------------
  AO# LABELS
   1  1  O     s   1.00883  -0.14378  -0.00001  -0.07009  -0.02206  -0.06942
   2  1  O     s  -0.01315   0.48458  -0.00001   0.20985  -0.00928   0.20671
   3  1  O     x   0.01408  -0.18564   0.00000   0.71300   0.24512   0.09476
   4  1  O     y   0.00001   0.00001   0.64170   0.00000   0.00000   0.00000
   5  1  O     z   0.01173  -0.15467   0.00000  -0.02687   0.00550   0.70664
   6  1  O     s  -0.04912   0.57163  -0.00001   0.08265  -0.03926   0.08443
   7  1  O     x   0.00855  -0.14672   0.00000   0.31207   0.27937   0.08260
   8  1  O     y   0.00000   0.00001   0.50992   0.00000   0.00000   0.00000
   9  1  O     z   0.00713  -0.12224   0.00000   0.02981   0.04541   0.30532
  10  2  H     s  -0.00182   0.02180  -0.00000  -0.00947  -0.03758   0.07871
  11  2  H     s   0.00602  -0.05927   0.00000  -0.01275  -0.04693   0.02659
  12  3  H     s  -0.00184   0.02169  -0.00000   0.08010   0.54636  -0.00986
  13  3  H     s   0.00611  -0.05983   0.00000   0.02643   0.23944  -0.01302

 ===========================================================================
    Orbital#             7
      Group#             2
 ---------------------------------------------------------------------------
  AO# LABELS
   1  1  O     s  -0.02121
   2  1  O     s  -0.01053
   3  1  O     x   0.04687
   4  1  O     y   0.00000
   5  1  O     z   0.23892
   6  1  O     s  -0.03865
   7  1  O     x   0.09274
   8  1  O     y   0.00000
   9  1  O     z   0.26774
  10  2  H     s   0.54378
  11  2  H     s   0.24483
  12  3  H     s  -0.03834
  13  3  H     s  -0.04764


 WORDS OF DYNAMIC MEMORY USED IN VB2000 CODE ONLY:        8100
 NOTE THAT THIS IS IN ADDITION TO MEMORY USED BY GAMESS
 PRINTED NEAR END OF OUTPUT. ADD THE TWO AMOUNTS TO GIVE
 THE TOTAL MEMORY USED BY THE JOB

 STATISTICS OF CPU TIMES (SECONDS)
 CPU TIME FOR INITIALIZATION        0.000
 CPU TIME FOR MACROITERATION        0.070
 TOTAL CPU TIME                     0.070

 STEP CPU TIME =     0.13 TOTAL CPU TIME =        7.1 (    0.1 MIN)
 TOTAL WALL CLOCK TIME=        7.1 SECONDS, CPU UTILIZATION IS  99.58%

 **************************************************************
 *                                                            *
 *                  ENDING GAMESS(US) VB2000                  *
 *                                                            *
 *  Properties for individual molecular orbitals are correct  *
 *   only for VB modified orbitals in a Hartree-Fock group.   *
 *                                                            *
 **************************************************************
 IMODE=    3 IVIB= 2 E=       -76.0293027957

          NSERCH=  6     ENERGY=     -76.0293506

                                 -----------------------
                                 GRADIENT (HARTREE/BOHR)
                                 -----------------------
        ATOM     ZNUC       DE/DX         DE/DY         DE/DZ
 --------------------------------------------------------------
    1  O            8.0    -0.0000003     0.0000000    -0.0000002
    2  H            1.0     0.0000001     0.0000000     0.0000000
    3  H            1.0     0.0000001     0.0000000     0.0000001

          MAXIMUM GRADIENT = 0.0000003    RMS GRADIENT = 0.0000001

 NSERCH:   6  E=      -76.0293506026  GRAD. MAX=  0.0000003  R.M.S.=  0.0000001


      ***** EQUILIBRIUM GEOMETRY LOCATED *****
 COORDINATES OF ALL ATOMS ARE (ANGS)
   ATOM   CHARGE       X              Y              Z
 ------------------------------------------------------------
 O           8.0   0.0358277734   0.0000000000   0.0300511066
 H           1.0  -0.0325576660  -0.0000000000   1.0024314499
 H           1.0   0.9815376452   0.0000000000  -0.2061307346

          INTERNUCLEAR DISTANCES (ANGS.)
          ------------------------------

                1 O          2 H          3 H     

   1 O       0.0000000    0.9747821 *  0.9747559 *
   2 H       0.9747821 *  0.0000000    1.5776602 *
   3 H       0.9747559 *  1.5776602 *  0.0000000  

  * ... LESS THAN  3.000


          NUCLEAR ENERGY    =        9.0214114669
          ELECTRONIC ENERGY =      -85.0054148687
          TOTAL ENERGY      =      -76.0293506026

          ------------------
          MOLECULAR ORBITALS
          ------------------

                      1          2          3          4          5
                  -20.5620    -1.3419    -0.7040    -0.5512    -0.4986
                     A          A          A          A          A   
    1  O  1  S    0.995793  -0.213281  -0.000003  -0.072814   0.000000
    2  O  1  S    0.021884   0.470496   0.000006   0.174867   0.000000
    3  O  1  X    0.001555   0.079376  -0.322426  -0.423809   0.000000
    4  O  1  Y    0.000000   0.000000   0.000000   0.000000  -0.641465
    5  O  1  Z    0.001305   0.066597   0.384231  -0.355632   0.000000
    6  O  1  S   -0.007917   0.487432   0.000019   0.293373   0.000000
    7  O  1  X   -0.001425   0.045608  -0.175113  -0.315006   0.000000
    8  O  1  Y    0.000000   0.000000   0.000000   0.000000  -0.510168
    9  O  1  Z   -0.001196   0.038269   0.208684  -0.264333   0.000000
   10  H  2  S    0.000126   0.135131   0.260352  -0.140322   0.000000
   11  H  2  S    0.001930  -0.007257   0.123702  -0.083384   0.000000
   12  H  3  S    0.000126   0.135141  -0.260360  -0.140314   0.000000
   13  H  3  S    0.001930  -0.007258  -0.123700  -0.083374   0.000000

                      6          7          8          9         10
                    0.1993     0.2948     1.0684     1.1442     1.1658
                     A          A          A          A          A   
    1  O  1  S   -0.086021  -0.000004   0.000008  -0.063654   0.000000
    2  O  1  S    0.107987   0.000003  -0.000051   0.312472   0.000000
    3  O  1  X    0.177541   0.219182   0.095684   0.340605   0.000000
    4  O  1  Y    0.000000   0.000000   0.000000   0.000000   0.961545
    5  O  1  Z    0.148999  -0.261201  -0.114152   0.285813   0.000000
    6  O  1  S    1.158747   0.000074   0.000078  -0.162313   0.000000
    7  O  1  X    0.356283   0.530824   0.439563   0.053000   0.000000
    8  O  1  Y    0.000000   0.000000   0.000000   0.000000  -1.037196
    9  O  1  Z    0.298999  -0.632579  -0.523802   0.044221   0.000000
   10  H  2  S   -0.066066   0.042771   0.984933  -0.944099   0.000000
   11  H  2  S   -0.981619   1.344046  -0.527943   0.558306   0.000000
   12  H  3  S   -0.066057  -0.042766  -0.984657  -0.944423   0.000000
   13  H  3  S   -0.981555  -1.344150   0.527720   0.558371   0.000000

                     11         12         13
                    1.2128     1.3774     1.6843
                     A          A          A   
    1  O  1  S    0.051318   0.000003   0.058797
    2  O  1  S   -0.342078  -0.000028  -1.679942
    3  O  1  X    0.668481  -0.661931  -0.157259
    4  O  1  Y    0.000000   0.000000   0.000000
    5  O  1  Z    0.560902   0.788852  -0.131965
    6  O  1  S    0.020796   0.000038   2.690013
    7  O  1  X   -0.906850   1.019507   0.608950
    8  O  1  Y    0.000000   0.000000   0.000000
    9  O  1  Z   -0.760907  -1.215023   0.510958
   10  H  2  S    0.294101  -0.031080  -0.415152
   11  H  2  S    0.058716   0.859992  -0.603453
   12  H  3  S    0.294071   0.031168  -0.415141
   13  H  3  S    0.058781  -0.860056  -0.603513

     ----------------------------------
     PROPERTIES FOR THE VB WAVEFUNCTION
     ----------------------------------

          -----------------
          ENERGY COMPONENTS
          -----------------

         WAVEFUNCTION NORMALIZATION =       1.0000000000

                ONE ELECTRON ENERGY =    -122.6412786083
                TWO ELECTRON ENERGY =      37.5905165388
           NUCLEAR REPULSION ENERGY =       9.0214114669
                                      ------------------
                       TOTAL ENERGY =     -76.0293506026

 ELECTRON-ELECTRON POTENTIAL ENERGY =      37.5905165388
  NUCLEUS-ELECTRON POTENTIAL ENERGY =    -198.6851334974
   NUCLEUS-NUCLEUS POTENTIAL ENERGY =       9.0214114669
                                      ------------------
             TOTAL POTENTIAL ENERGY =    -152.0732054917
               TOTAL KINETIC ENERGY =      76.0438548892
                 VIRIAL RATIO (V/T) =       1.9998092642

          ---------------------------------------
          MULLIKEN AND LOWDIN POPULATION ANALYSES
          ---------------------------------------

     ATOMIC MULLIKEN POPULATION IN EACH MOLECULAR ORBITAL

                      1          2          3          4          5

                  2.000000   2.000000   2.000000   2.000000   2.000000

    1             1.999419   1.758696   1.258804   1.788501   2.000000
    2             0.000290   0.120644   0.370597   0.105759   0.000000
    3             0.000290   0.120660   0.370599   0.105741   0.000000

               ----- POPULATIONS IN EACH AO -----
                             MULLIKEN      LOWDIN
              1  O  1  S      1.99775     1.99421
              2  O  1  S      0.90737     0.88568
              3  O  1  X      0.87864     0.82729
              4  O  1  Y      1.15143     1.13101
              5  O  1  Z      0.85334     0.79787
              6  O  1  S      0.98908     0.77125
              7  O  1  X      0.57808     0.65779
              8  O  1  Y      0.84857     0.86899
              9  O  1  Z      0.53634     0.62407
             10  H  2  S      0.51564     0.48165
             11  H  2  S      0.11405     0.23927
             12  H  3  S      0.51566     0.48166
             13  H  3  S      0.11404     0.23926

          ----- MULLIKEN ATOMIC OVERLAP POPULATIONS -----
          (OFF-DIAGONAL ELEMENTS NEED TO BE MULTIPLIED BY 2)

             1           2           3

    1    8.2637825
    2    0.2384137   0.4189725
    3    0.2384155  -0.0276911   0.4189688

          TOTAL MULLIKEN AND LOWDIN ATOMIC POPULATIONS
       ATOM         MULL.POP.    CHARGE          LOW.POP.     CHARGE
    1 O             8.740612   -0.740612         8.558157   -0.558157
    2 H             0.629695    0.370305         0.720920    0.279080
    3 H             0.629693    0.370307         0.720923    0.279077

          -------------------------------
          BOND ORDER AND VALENCE ANALYSIS     BOND ORDER THRESHOLD=0.050
          -------------------------------

                   BOND                       BOND                       BOND
  ATOM PAIR DIST  ORDER      ATOM PAIR DIST  ORDER      ATOM PAIR DIST  ORDER
    1   2  0.975  0.781        1   3  0.975  0.781

                       TOTAL       BONDED        FREE
      ATOM            VALENCE     VALENCE     VALENCE
    1 O                 1.661       1.561       0.100
    2 H                 0.824       0.784       0.040
    3 H                 0.824       0.784       0.040

          ---------------------
          ELECTROSTATIC MOMENTS
          ---------------------

 POINT   1           X           Y           Z (BOHR)    CHARGE
                 0.160477    0.000000    0.134637        0.00 (A.U.)
         DX          DY          DZ         /D/  (DEBYE)
     1.865511    0.000000    1.565370    2.435264
 ...... END OF PROPERTY EVALUATION ......
 STEP CPU TIME =     0.01 TOTAL CPU TIME =        7.1 (    0.1 MIN)
 TOTAL WALL CLOCK TIME=        7.1 SECONDS, CPU UTILIZATION IS  99.72%
  $VIB   
          IVIB=   0 IATOM=   0 ICOORD=   0 E=      -76.0293506026
 -2.705147026E-07 0.000000000E+00-1.518791734E-07 1.326675656E-07 0.000000000E+00
  4.653141642E-08 1.378471370E-07 0.000000000E+00 1.053477570E-07
  1.865510509E+00 1.904184151E-09 1.565369769E+00
 ......END OF GEOMETRY SEARCH......
 STEP CPU TIME =     0.00 TOTAL CPU TIME =        7.1 (    0.1 MIN)
 TOTAL WALL CLOCK TIME=        7.1 SECONDS, CPU UTILIZATION IS  99.72%
               580000  WORDS OF DYNAMIC MEMORY USED
 EXECUTION OF GAMESS TERMINATED NORMALLY Mon Oct 14 07:28:49 2013
 DDI: 263720 bytes (0.3 MB / 0 MWords) used by master data server.

 ----------------------------------------
 CPU timing information for all processes
 ========================================
 0: 6.672 + 0.412 = 7.84
 ----------------------------------------
 ddikick.x: exited gracefully.
unset echo
----- accounting info -----
Files used on the master node titch-64 were:
-rw-r--r-- 1 brian brian    1147 Oct 14 07:28 /scr/brian/exam-vb12.F05
-rw-rw-r-- 1 brian brian  180016 Oct 14 07:28 /scr/brian/exam-vb12.F08
-rw-rw-r-- 1 brian brian 1865040 Oct 14 07:28 /scr/brian/exam-vb12.F10
-rw-rw-r-- 1 brian brian      88 Oct 14 07:28 /scr/brian/exam-vb12.TEMP02
-rw-rw-r-- 1 brian brian      88 Oct 14 07:28 /scr/brian/exam-vb12.TEMP03
-rw-rw-r-- 1 brian brian     448 Oct 14 07:28 /scr/brian/exam-vb12.TEMP04
-rw-rw-r-- 1 brian brian     324 Oct 14 07:28 /scr/brian/exam-vb12.V80
-rw-rw-r-- 1 brian brian       0 Oct 14 07:28 /scr/brian/exam-vb12.V82
-rw-rw-r-- 1 brian brian       0 Oct 14 07:28 /scr/brian/exam-vb12.V83
-rw-rw-r-- 1 brian brian    1756 Oct 14 07:28 /scr/brian/exam-vb12.V84
-rw-rw-r-- 1 brian brian   49192 Oct 14 07:28 /scr/brian/exam-vb12.V85
-rw-rw-r-- 1 brian brian  196592 Oct 14 07:28 /scr/brian/exam-vb12.V86
-rw-rw-r-- 1 brian brian  196592 Oct 14 07:28 /scr/brian/exam-vb12.V87
-rw-rw-r-- 1 brian brian     736 Oct 14 07:28 /scr/brian/exam-vb12.V88
-rw-rw-r-- 1 brian brian       0 Oct 14 07:28 /scr/brian/exam-vb12.V89
ls: No match.
ls: No match.
ls: No match.
Mon Oct 14 07:28:52 EST 2013
0.088u 0.012s 0:10.28 0.8%	0+0k 8+16io 0pf+0w
