----- GAMESS execution script 'rungms' -----
This job is running on host titch-64
under operating system Linux at Mon Oct 14 07:27:06 EST 2013
Available scratch disk space (Kbyte units) at beginning of the job is
Filesystem     1K-blocks      Used Available Use% Mounted on
/dev/sda1      945022356 138261868 758756136  16% /
GAMESS temporary binary files will be written to /scr/brian
GAMESS supplementary output files will be written to /home/brian/scr
Copying input file exam-vb05.inp to your run's scratch directory...
cp tests/exam-vb05.inp /scr/brian/exam-vb05.F05
unset echo
/home/brian/qchem/gamess/ddikick.x /home/brian/qchem/gamess/gamess.01.x exam-vb05 -ddi 1 1 titch-64 -scr /scr/brian

 Distributed Data Interface kickoff program.
 Initiating 1 compute processes on 1 nodes to run the following command:
 /home/brian/qchem/gamess/gamess.01.x exam-vb05 

          ******************************************************
          *         GAMESS VERSION =  1 MAY 2013 (R1)          *
          *             FROM IOWA STATE UNIVERSITY             *
          * M.W.SCHMIDT, K.K.BALDRIDGE, J.A.BOATZ, S.T.ELBERT, *
          *   M.S.GORDON, J.H.JENSEN, S.KOSEKI, N.MATSUNAGA,   *
          *          K.A.NGUYEN, S.J.SU, T.L.WINDUS,           *
          *       TOGETHER WITH M.DUPUIS, J.A.MONTGOMERY       *
          *         J.COMPUT.CHEM.  14, 1347-1363(1993)        *
          **************** 64 BIT LINUX VERSION ****************

  SINCE 1993, STUDENTS AND POSTDOCS WORKING AT IOWA STATE UNIVERSITY
  AND ALSO IN THEIR VARIOUS JOBS AFTER LEAVING ISU HAVE MADE IMPORTANT
  CONTRIBUTIONS TO THE CODE:
     IVANA ADAMOVIC, CHRISTINE AIKENS, YURI ALEXEEV, POOJA ARORA,
     ANDREY ASADCHEV, ROB BELL, PRADIPTA BANDYOPADHYAY, JONATHAN BENTZ,
     BRETT BODE, GALINA CHABAN, WEI CHEN, CHEOL HO CHOI, PAUL DAY,
     ALBERT DEFUSCO, TIM DUDLEY, DMITRI FEDOROV, GRAHAM FLETCHER,
     MARK FREITAG, KURT GLAESEMANN, DAN KEMP, GRANT MERRILL,
     NORIYUKI MINEZAWA, JONATHAN MULLIN, TAKESHI NAGATA,
     SEAN NEDD, HEATHER NETZLOFF, BOSILJKA NJEGIC, RYAN OLSON, MIKE PAK,
     JIM SHOEMAKER, LYUDMILA SLIPCHENKO, SAROM SOK, JIE SONG,
     TETSUYA TAKETSUGU, SIMON WEBB, SOOHAENG YOO, FEDERICO ZAHARIEV

  ADDITIONAL CODE HAS BEEN PROVIDED BY COLLABORATORS IN OTHER GROUPS:
     IOWA STATE UNIVERSITY:
          JOE IVANIC, LAIMUTIS BYTAUTAS, KLAUS RUEDENBERG
     UNIVERSITY OF TOKYO: KIMIHIKO HIRAO, TAKAHITO NAKAJIMA,
          TAKAO TSUNEDA, MUNEAKI KAMIYA, SUSUMU YANAGISAWA,
          KIYOSHI YAGI, MAHITO CHIBA, SEIKEN TOKURA, NAOAKI KAWAKAMI
     UNIVERSITY OF AARHUS: FRANK JENSEN
     UNIVERSITY OF IOWA: VISVALDAS KAIRYS, HUI LI
     NATIONAL INST. OF STANDARDS AND TECHNOLOGY: WALT STEVENS, DAVID GARMER
     UNIVERSITY OF PISA: BENEDETTA MENNUCCI, JACOPO TOMASI
     UNIVERSITY OF MEMPHIS: HENRY KURTZ, PRAKASHAN KORAMBATH
     UNIVERSITY OF ALBERTA: TOBY ZENG, MARIUSZ KLOBUKOWSKI
     UNIVERSITY OF NEW ENGLAND: MARK SPACKMAN
     MIE UNIVERSITY: HIROAKI UMEDA
     MICHIGAN STATE UNIVERSITY:
          KAROL KOWALSKI, MARTA WLOCH, JEFFREY GOUR, JESSE LUTZ,
          WEI LI, PIOTR PIECUCH
     UNIVERSITY OF SILESIA: MONIKA MUSIAL, STANISLAW KUCHARSKI
     FACULTES UNIVERSITAIRES NOTRE-DAME DE LA PAIX:
          OLIVIER QUINET, BENOIT CHAMPAGNE
     UNIVERSITY OF CALIFORNIA - SANTA BARBARA: BERNARD KIRTMAN
     INSTITUTE FOR MOLECULAR SCIENCE:
          KAZUYA ISHIMURA, MICHIO KATOUDA, AND SHIGERU NAGASE
     UNIVERSITY OF NOTRE DAME: DAN CHIPMAN
     KYUSHU UNIVERSITY:
          HARUYUKI NAKANO,
          FENG LONG GU, JACEK KORCHOWIEC, MARCIN MAKOWSKI, AND YURIKO AOKI,
          HIROTOSHI MORI AND EISAKU MIYOSHI
     PENNSYLVANIA STATE UNIVERSITY:
          TZVETELIN IORDANOV, CHET SWALINA, JONATHAN SKONE,
          SHARON HAMMES-SCHIFFER
     WASEDA UNIVERSITY:
          MASATO KOBAYASHI, TOMOKO AKAMA, TSUGUKI TOUMA,
          TAKESHI YOSHIKAWA, YASUHIRO IKABATA, HIROMI NAKAI
     NANJING UNIVERSITY: SHUHUA LI
     UNIVERSITY OF NEBRASKA:
          PEIFENG SU, DEJUN SI, NANDUN THELLAMUREGE, YALI WANG, HUI LI
     UNIVERSITY OF ZURICH:
          ROBERTO PEVERATI, KIM BALDRIDGE
     N. COPERNICUS UNIVERSITY AND JACKSON STATE UNIVERSITY:
          MARIA BARYSZ

 EXECUTION OF GAMESS BEGUN Mon Oct 14 07:27:06 2013

            ECHO OF THE FIRST FEW INPUT CARDS -
 INPUT CARD>! GAMESS/VB2000 Test 5.                                                         
 INPUT CARD>! This run is the same method and geometry as test 3, but                       
 INPUT CARD>! illustrates a larger basis set, including f orbitals which are                
 INPUT CARD>! not possible with the stand-alone VB2000 code. This has the                   
 INPUT CARD>! maximum number of d (3) and f (1) functions on O and the                      
 INPUT CARD>! maximum number of p (3) on H that can be defined ! in $BASIS                  
 INPUT CARD>! with NDFUNC and NFFUNC. This is larger than in earlier versions.              
 INPUT CARD>!                                                                               
 INPUT CARD>! It also uses the non-documented $LSTVBOLIB directive that writes              
 INPUT CARD>! out the VBOLIB to test the process that creates the VBOLIB for                
 INPUT CARD>! the 6-311G(3df,3p) basis set on the fly from the VBOLIB for                   
 INPUT CARD>! 6-311G.                                                                       
 INPUT CARD>!                                                                               
 INPUT CARD>! The final RHF energy is:-                                                     
 INPUT CARD>!                                                                               
 INPUT CARD>! RHF ENERGY IS -76.0556250333 AFTER  10 ITERATIONS                             
 INPUT CARD>!                                                                               
 INPUT CARD>! The final VB energy is:-                                                      
 INPUT CARD>!                                                                               
 INPUT CARD>! ENERGY AND DIFF OF MACROITER   12 =    -76.09766229     -0.00000038           
 INPUT CARD>!                                                                               
 INPUT CARD>! and the VB and HF dipole moments are 1.7969 and 1.9017 respectively.          
 INPUT CARD>!                                                                               
 INPUT CARD> $CONTRL SCFTYP=RHF COORD=UNIQUE VBTYP=VB2000 $END                              
 INPUT CARD> $SYSTEM TIMLIM=20 MEMORY=2000000 $END                                          
 INPUT CARD> $BASIS GBASIS=N311 NGAUSS=6 NDFUNC=3 NFFUNC=1 NPFUNC=3 $END                    
 INPUT CARD> $GUESS  GUESS=HUCKEL $END                                                      
 INPUT CARD> $DATA                                                                          
 INPUT CARD>Water 6-311G(3df,3p) VB2000 Test                                                
 INPUT CARD>C1                                                                              
 INPUT CARD>O 8.0    0.0000000000    0.0000000000   0.0000000000                            
 INPUT CARD>H 1.0    0.0000000000   -0.7572153434   0.5865355237                            
 INPUT CARD>H 1.0    0.0000000000    0.7572153434   0.5865355237                            
 INPUT CARD> $END                                                                           
 INPUT CARD> $VB2000                                                                        
 INPUT CARD>#! VB(4)/6-311G(3df,3p) PRINTALL                                                
 INPUT CARD>                                                                                
 INPUT CARD>Water                                                                           
 INPUT CARD>                                                                                
 INPUT CARD>0 1                                                                             
 INPUT CARD>8    0.0000000000    0.0000000000   0.0000000000                                
 INPUT CARD>1    0.0000000000   -0.7572153434   0.5865355237                                
 INPUT CARD>1    0.0000000000    0.7572153434   0.5865355237                                
 INPUT CARD>                                                                                
 INPUT CARD> $02VBORB                                                                       
 INPUT CARD> 1-2                                                                            
 INPUT CARD> 1-3                                                                            
 INPUT CARD>                                                                                
 INPUT CARD> $LSTVBOLIB                                                                     
 INPUT CARD>                                                                                
    2000000 WORDS OF MEMORY AVAILABLE

     BASIS OPTIONS
     -------------
     GBASIS=N311         IGAUSS=       6      POLAR=POPN311 
     NDFUNC=       3     NFFUNC=       1     DIFFSP=       F
     NPFUNC=       3      DIFFS=       F     BASNAM=        
     SPLIT3=     4.00000000     1.00000000     0.25000000


     RUN TITLE
     ---------
 Water 6-311G(3df,3p) VB2000 Test                                                

 THE POINT GROUP OF THE MOLECULE IS C1      
 THE ORDER OF THE PRINCIPAL AXIS IS     0

 ATOM      ATOMIC                      COORDINATES (BOHR)
           CHARGE         X                   Y                   Z
 O           8.0     0.0000000000        0.0000000000        0.0000000000
 H           1.0     0.0000000000       -1.4309295127        1.1083914219
 H           1.0     0.0000000000        1.4309295127        1.1083914219

          INTERNUCLEAR DISTANCES (ANGS.)
          ------------------------------

                1 O          2 H          3 H     

   1 O       0.0000000    0.9578095 *  0.9578095 *
   2 H       0.9578095 *  0.0000000    1.5144307 *
   3 H       0.9578095 *  1.5144307 *  0.0000000  

  * ... LESS THAN  3.000


     ATOMIC BASIS SET
     ----------------
 THE CONTRACTED PRIMITIVE FUNCTIONS HAVE BEEN UNNORMALIZED
 THE CONTRACTED BASIS FUNCTIONS ARE NOW NORMALIZED TO UNITY

  SHELL TYPE  PRIMITIVE        EXPONENT          CONTRACTION COEFFICIENT(S)

 O         

      1   S       1          8588.5000000    0.001895150083
      1   S       2          1297.2300000    0.014385900631
      1   S       3           299.2960000    0.070732003103
      1   S       4            87.3771000    0.240001010530
      1   S       5            25.6789000    0.594797026097
      1   S       6             3.7400400    0.280802012320

      2   L       7            42.1175000    0.113889012440    0.036511397380
      2   L       8             9.6283700    0.920811100576    0.237152982984
      2   L       9             2.8533200   -0.003274470358    0.819701941186

      3   L      10             0.9056610    1.000000000000    1.000000000000

      4   L      11             0.2556110    1.000000000000    1.000000000000

      5   D      12             5.1680000    1.000000000000

      6   D      13             1.2920000    1.000000000000

      7   D      14             0.3230000    1.000000000000

      8   F      15             1.4000000    1.000000000000

 H         

      9   S      16            33.8650000    0.025493814541
      9   S      17             5.0947900    0.190373108582
      9   S      18             1.1587900    0.852161486043

     10   S      19             0.3258400    1.000000000000

     11   S      20             0.1027410    1.000000000000

     12   P      21             3.0000000    1.000000000000

     13   P      22             0.7500000    1.000000000000

     14   P      23             0.1875000    1.000000000000

 H         

     15   S      24            33.8650000    0.025493814541
     15   S      25             5.0947900    0.190373108582
     15   S      26             1.1587900    0.852161486043

     16   S      27             0.3258400    1.000000000000

     17   S      28             0.1027410    1.000000000000

     18   P      29             3.0000000    1.000000000000

     19   P      30             0.7500000    1.000000000000

     20   P      31             0.1875000    1.000000000000

 TOTAL NUMBER OF BASIS SET SHELLS             =   20
 NUMBER OF CARTESIAN GAUSSIAN BASIS FUNCTIONS =   65
 NUMBER OF ELECTRONS                          =   10
 CHARGE OF MOLECULE                           =    0
 SPIN MULTIPLICITY                            =    1
 NUMBER OF OCCUPIED ORBITALS (ALPHA)          =    5
 NUMBER OF OCCUPIED ORBITALS (BETA )          =    5
 TOTAL NUMBER OF ATOMS                        =    3
 THE NUCLEAR REPULSION ENERGY IS        9.1892146195

     $CONTRL OPTIONS
     ---------------
 SCFTYP=RHF          RUNTYP=ENERGY       EXETYP=RUN     
 MPLEVL=       0     CITYP =NONE         CCTYP =NONE         VBTYP =VB2000  
 DFTTYP=NONE         TDDFT =NONE    
 MULT  =       1     ICHARG=       0     NZVAR =       0     COORD =UNIQUE  
 PP    =NONE         RELWFN=NONE         LOCAL =NONE         NUMGRD=       F
 ISPHER=      -1     NOSYM =       0     MAXIT =      30     UNITS =ANGS    
 PLTORB=       F     MOLPLT=       F     AIMPAC=       F     FRIEND=        
 NPRINT=       7     IREST =       0     GEOM  =INPUT   
 NORMF =       0     NORMP =       0     ITOL  =      20     ICUT  =       9
 INTTYP=BEST         GRDTYP=BEST         QMTTOL= 1.0E-06

     $SYSTEM OPTIONS
     ---------------
  REPLICATED MEMORY=     2000000 WORDS (ON EVERY NODE).
 DISTRIBUTED MEMDDI=           0 MILLION WORDS IN AGGREGATE,
 MEMDDI DISTRIBUTED OVER   1 PROCESSORS IS           0 WORDS/PROCESSOR.
 TOTAL MEMORY REQUESTED ON EACH PROCESSOR=     2000000 WORDS.
 TIMLIM=          20.00 MINUTES, OR       0.0 DAYS.
 PARALL= F  BALTYP=  DLB     KDIAG=    0  COREFL= F
 MXSEQ2=     300 MXSEQ3=     150

          ----------------
          PROPERTIES INPUT
          ----------------

     MOMENTS            FIELD           POTENTIAL          DENSITY
 IEMOM =       1   IEFLD =       0   IEPOT =       0   IEDEN =       0
 WHERE =COMASS     WHERE =NUCLEI     WHERE =NUCLEI     WHERE =NUCLEI  
 OUTPUT=BOTH       OUTPUT=BOTH       OUTPUT=BOTH       OUTPUT=BOTH    
 IEMINT=       0   IEFINT=       0                     IEDINT=       0
                                                       MORB  =       0
          EXTRAPOLATION IN EFFECT
          SOSCF IN EFFECT
 ORBITAL PRINTING OPTION: NPREO=     1    65     2     1

     -------------------------------
     INTEGRAL TRANSFORMATION OPTIONS
     -------------------------------
     NWORD  =            0
     CUTOFF = 1.0E-09     MPTRAN =       0
     DIRTRF =       F     AOINTS =DUP     

          ----------------------
          INTEGRAL INPUT OPTIONS
          ----------------------
 NOPK  =       1 NORDER=       0 SCHWRZ=       F

     ------------------------------------------
     THE POINT GROUP IS C1 , NAXIS= 0, ORDER= 1
     ------------------------------------------

     DIMENSIONS OF THE SYMMETRY SUBSPACES ARE
 A   =   65

 ..... DONE SETTING UP THE RUN .....
 STEP CPU TIME =     0.00 TOTAL CPU TIME =        0.0 (    0.0 MIN)
 TOTAL WALL CLOCK TIME=        0.0 SECONDS, CPU UTILIZATION IS   0.00%

          ********************
          1 ELECTRON INTEGRALS
          ********************
 ...... END OF ONE-ELECTRON INTEGRALS ......
 STEP CPU TIME =     0.01 TOTAL CPU TIME =        0.0 (    0.0 MIN)
 TOTAL WALL CLOCK TIME=        0.0 SECONDS, CPU UTILIZATION IS 100.00%

          -------------
          GUESS OPTIONS
          -------------
          GUESS =HUCKEL            NORB  =       0          NORDER=       0
          MIX   =       F          PRTMO =       F          PUNMO =       F
          TOLZ  = 1.0E-08          TOLE  = 1.0E-05
          SYMDEN=       F          PURIFY=       F

 INITIAL GUESS ORBITALS GENERATED BY HUCKEL   ROUTINE.
 HUCKEL GUESS REQUIRES     33019 WORDS.

 SYMMETRIES FOR INITIAL GUESS ORBITALS FOLLOW.   BOTH SET(S).
     5 ORBITALS ARE OCCUPIED (    1 CORE ORBITALS).
     2=A        3=A        4=A        5=A        6=A        7=A        8=A   
     9=A       10=A       11=A       12=A       13=A       14=A       15=A   
 ...... END OF INITIAL ORBITAL SELECTION ......
 STEP CPU TIME =     0.00 TOTAL CPU TIME =        0.0 (    0.0 MIN)
 TOTAL WALL CLOCK TIME=        0.0 SECONDS, CPU UTILIZATION IS 100.00%

                    ----------------------
                    AO INTEGRAL TECHNOLOGY
                    ----------------------
     S,P,L SHELL ROTATED AXIS INTEGRALS, REPROGRAMMED BY
        KAZUYA ISHIMURA (IMS) AND JOSE SIERRA (SYNSTAR).
     S,P,D,L SHELL ROTATED AXIS INTEGRALS PROGRAMMED BY
        KAZUYA ISHIMURA (INSTITUTE FOR MOLECULAR SCIENCE).
     S,P,D,F,G SHELL TO TOTAL QUARTET ANGULAR MOMENTUM SUM 5,
        ERIC PROGRAM BY GRAHAM FLETCHER (ELORET AND NASA ADVANCED
        SUPERCOMPUTING DIVISION, AMES RESEARCH CENTER).
     S,P,D,F,G,L SHELL GENERAL RYS QUADRATURE PROGRAMMED BY
        MICHEL DUPUIS (PACIFIC NORTHWEST NATIONAL LABORATORY).

          --------------------
          2 ELECTRON INTEGRALS
          --------------------

 THE -PK- OPTION IS OFF, THE INTEGRALS ARE NOT IN SUPERMATRIX FORM.
 STORING   15000 INTEGRALS/RECORD ON DISK, USING 12 BYTES/INTEGRAL.
 TWO ELECTRON INTEGRAL EVALUATION REQUIRES   99310 WORDS OF MEMORY.
 II,JST,KST,LST =  1  1  1  1 NREC =         1 INTLOC =    1
 II,JST,KST,LST =  2  1  1  1 NREC =         1 INTLOC =    2
 II,JST,KST,LST =  3  1  1  1 NREC =         1 INTLOC =   34
 II,JST,KST,LST =  4  1  1  1 NREC =         1 INTLOC =  214
 II,JST,KST,LST =  5  1  1  1 NREC =         1 INTLOC =  776
 II,JST,KST,LST =  6  1  1  1 NREC =         1 INTLOC = 2864
 II,JST,KST,LST =  7  1  1  1 NREC =         1 INTLOC = 7967
 II,JST,KST,LST =  8  1  1  1 NREC =         2 INTLOC = 3425
 II,JST,KST,LST =  9  1  1  1 NREC =         4 INTLOC = 5324
 II,JST,KST,LST = 10  1  1  1 NREC =         5 INTLOC = 9995
 II,JST,KST,LST = 11  1  1  1 NREC =         7 INTLOC = 1232
 II,JST,KST,LST = 12  1  1  1 NREC =         8 INTLOC = 9125
 II,JST,KST,LST = 13  1  1  1 NREC =        13 INTLOC = 9120
 II,JST,KST,LST = 14  1  1  1 NREC =        19 INTLOC = 9453
 II,JST,KST,LST = 15  1  1  1 NREC =        26 INTLOC =11915
 II,JST,KST,LST = 16  1  1  1 NREC =        29 INTLOC = 8666
 II,JST,KST,LST = 17  1  1  1 NREC =        32 INTLOC = 7967
 II,JST,KST,LST = 18  1  1  1 NREC =        35 INTLOC = 9926
 II,JST,KST,LST = 19  1  1  1 NREC =        45 INTLOC = 7825
 II,JST,KST,LST = 20  1  1  1 NREC =        56 INTLOC =13984
 TOTAL NUMBER OF NONZERO TWO-ELECTRON INTEGRALS =             1035391
         70 INTEGRAL RECORDS WERE STORED ON DISK FILE  8.
  ...... END OF TWO-ELECTRON INTEGRALS .....
 STEP CPU TIME =     0.09 TOTAL CPU TIME =        0.1 (    0.0 MIN)
 TOTAL WALL CLOCK TIME=        0.1 SECONDS, CPU UTILIZATION IS 100.00%

          --------------------------
                 RHF SCF CALCULATION
          --------------------------

     NUCLEAR ENERGY =         9.1892146195
     MAXIT =   30     NPUNCH=    2
     EXTRAP=T  DAMP=F  SHIFT=F  RSTRCT=F  DIIS=F  DEM=F  SOSCF=T
     DENSITY MATRIX CONV=  1.00E-05
     SOSCF WILL OPTIMIZE     300 ORBITAL ROTATIONS, SOGTOL=   0.250
     MEMORY REQUIRED FOR RHF ITERS=     61685 WORDS.

 ITER EX DEM     TOTAL ENERGY        E CHANGE  DENSITY CHANGE     ORB. GRAD
   1  0  0      -75.7209656604   -75.7209656604   0.560942563   0.000000000
          ---------------START SECOND ORDER SCF---------------
   2  1  0      -76.0404577307    -0.3194920702   0.045525139   0.040997676
   3  2  0      -76.0541849216    -0.0137271909   0.035326718   0.014869658
   4  3  0      -76.0555366928    -0.0013517712   0.004743990   0.003867973
   5  4  0      -76.0556111233    -0.0000744306   0.001056024   0.001304921
   6  5  0      -76.0556242000    -0.0000130767   0.000332661   0.000328445
   7  6  0      -76.0556250156    -0.0000008156   0.000055485   0.000030430
   8  7  0      -76.0556250327    -0.0000000172   0.000023784   0.000006295
   9  8  0      -76.0556250333    -0.0000000005   0.000006791   0.000001537
  10  9  0      -76.0556250333    -0.0000000000   0.000000887   0.000000464

          -----------------
          DENSITY CONVERGED
          -----------------
     TIME TO FORM FOCK OPERATORS=       0.1 SECONDS (       0.0 SEC/ITER)
     TIME TO SOLVE SCF EQUATIONS=       0.0 SECONDS (       0.0 SEC/ITER)

 FINAL RHF ENERGY IS      -76.0556250333 AFTER  10 ITERATIONS

          ------------
          EIGENVECTORS
          ------------

                      1          2          3          4          5
                  -20.5552    -1.3467    -0.7111    -0.5792    -0.5054
                     A          A          A          A          A   
    1  O  1  S    0.551342  -0.112137   0.000000   0.036670  -0.000000
    2  O  1  S    0.472643  -0.202476   0.000000   0.069308  -0.000000
    3  O  1  X    0.000000   0.000000   0.000000  -0.000000   0.291617
    4  O  1  Y    0.000000   0.000000   0.230543  -0.000000  -0.000000
    5  O  1  Z    0.003202   0.035575   0.000000   0.255830  -0.000000
    6  O  1  S    0.001012   0.546773   0.000000  -0.201552  -0.000000
    7  O  1  X    0.000000   0.000000   0.000000  -0.000000   0.431011
    8  O  1  Y    0.000000   0.000000   0.343249  -0.000000  -0.000000
    9  O  1  Z   -0.006621   0.062420   0.000000   0.374022  -0.000000
   10  O  1  S   -0.003986   0.524499   0.000000  -0.210798  -0.000000
   11  O  1  X    0.000000   0.000000   0.000000  -0.000000   0.422018
   12  O  1  Y    0.000000   0.000000   0.250269  -0.000000  -0.000000
   13  O  1  Z    0.000707   0.017141   0.000000   0.393376  -0.000000
   14  O  1 XX    0.001064  -0.010423   0.000000   0.002442  -0.000000
   15  O  1 YY    0.001210  -0.009865   0.000000   0.004330  -0.000000
   16  O  1 ZZ    0.001163  -0.009894   0.000000   0.004822  -0.000000
   17  O  1 XY    0.000000   0.000000   0.000000  -0.000000  -0.000000
   18  O  1 XZ    0.000000   0.000000   0.000000  -0.000000   0.000840
   19  O  1 YZ    0.000000   0.000000   0.003094  -0.000000  -0.000000
   20  O  1 XX    0.002249  -0.039511   0.000000   0.002474  -0.000000
   21  O  1 YY    0.001978  -0.022885   0.000000   0.012012  -0.000000
   22  O  1 ZZ    0.002069  -0.027661   0.000000   0.029251  -0.000000
   23  O  1 XY    0.000000   0.000000   0.000000  -0.000000  -0.000000
   24  O  1 XZ    0.000000   0.000000   0.000000  -0.000000   0.014638
   25  O  1 YZ    0.000000   0.000000   0.026967  -0.000000  -0.000000
   26  O  1 XX    0.001342  -0.057973   0.000000   0.010650  -0.000000
   27  O  1 YY    0.001341  -0.060035   0.000000   0.038723  -0.000000
   28  O  1 ZZ    0.001406  -0.054213   0.000000   0.055412  -0.000000
   29  O  1 XY    0.000000   0.000000   0.000000  -0.000000  -0.000000
   30  O  1 XZ    0.000000   0.000000   0.000000  -0.000000   0.013608
   31  O  1 YZ    0.000000   0.000000   0.019577  -0.000000  -0.000000
   32  O  1 XXX   0.000000   0.000000   0.000000  -0.000000   0.001293
   33  O  1 YYY   0.000000   0.000000   0.009985  -0.000000  -0.000000
   34  O  1 ZZZ   0.003244   0.000972   0.000000   0.007865  -0.000000
   35  O  1 XXY   0.000000   0.000000  -0.002193  -0.000000  -0.000000
   36  O  1 XXZ   0.001434  -0.001393   0.000000  -0.001748  -0.000000
   37  O  1 YYX   0.000000   0.000000   0.000000  -0.000000   0.009020
   38  O  1 YYZ   0.001559   0.004947   0.000000   0.006361  -0.000000
   39  O  1 ZZX   0.000000   0.000000   0.000000  -0.000000   0.005905
   40  O  1 ZZY   0.000000   0.000000   0.003689  -0.000000  -0.000000
   41  O  1 XYZ   0.000000   0.000000   0.000000  -0.000000  -0.000000
   42  H  2  S    0.000239   0.089749  -0.147098   0.090245  -0.000000
   43  H  2  S   -0.000146   0.078644  -0.174855   0.060314  -0.000000
   44  H  2  S   -0.000196   0.015580  -0.067802   0.000362  -0.000000
   45  H  2  X    0.000000   0.000000   0.000000  -0.000000   0.004151
   46  H  2  Y   -0.000021   0.004091  -0.002378   0.003217  -0.000000
   47  H  2  Z    0.000018  -0.002880   0.003468   0.001223  -0.000000
   48  H  2  X    0.000000   0.000000   0.000000  -0.000000   0.016437
   49  H  2  Y    0.000126   0.012602  -0.011551   0.010660  -0.000000
   50  H  2  Z   -0.000067  -0.007885   0.018487   0.004461  -0.000000
   51  H  2  X    0.000000   0.000000   0.000000  -0.000000   0.040959
   52  H  2  Y   -0.000133   0.007102  -0.005631  -0.023170  -0.000000
   53  H  2  Z    0.000019  -0.007522   0.002208   0.043584  -0.000000
   54  H  3  S    0.000239   0.089749   0.147098   0.090245  -0.000000
   55  H  3  S   -0.000146   0.078644   0.174855   0.060314  -0.000000
   56  H  3  S   -0.000196   0.015580   0.067802   0.000362  -0.000000
   57  H  3  X    0.000000   0.000000   0.000000  -0.000000   0.004151
   58  H  3  Y    0.000021  -0.004091  -0.002378  -0.003217  -0.000000
   59  H  3  Z    0.000018  -0.002880  -0.003468   0.001223  -0.000000
   60  H  3  X    0.000000   0.000000   0.000000  -0.000000   0.016437
   61  H  3  Y   -0.000126  -0.012602  -0.011551  -0.010660  -0.000000
   62  H  3  Z   -0.000067  -0.007885  -0.018487   0.004461  -0.000000
   63  H  3  X    0.000000   0.000000   0.000000  -0.000000   0.040959
   64  H  3  Y    0.000133  -0.007102  -0.005631   0.023170  -0.000000
   65  H  3  Z    0.000019  -0.007522  -0.002208   0.043584  -0.000000

                      6          7          8          9         10
                    0.1385     0.2073     0.3969     0.4026     0.4269
                     A          A          A          A          A   
    1  O  1  S    0.035468   0.000000   0.000000  -0.012116   0.000000
    2  O  1  S    0.032001   0.000000   0.000000  -0.024874   0.000000
    3  O  1  X    0.000000   0.000000   0.000000   0.000000  -0.123041
    4  O  1  Y    0.000000   0.112858   0.063418   0.000000   0.000000
    5  O  1  Z   -0.073291   0.000000   0.000000  -0.070703   0.000000
    6  O  1  S   -0.314391   0.000000   0.000000   0.086759   0.000000
    7  O  1  X    0.000000   0.000000   0.000000   0.000000  -0.162422
    8  O  1  Y    0.000000   0.134064   0.127642   0.000000   0.000000
    9  O  1  Z   -0.098038   0.000000   0.000000  -0.088752   0.000000
   10  O  1  S   -0.186133   0.000000   0.000000   0.530447   0.000000
   11  O  1  X    0.000000   0.000000   0.000000   0.000000  -0.905720
   12  O  1  Y    0.000000   0.983572  -2.029671   0.000000   0.000000
   13  O  1  Z   -0.232851   0.000000   0.000000  -0.528288   0.000000
   14  O  1 XX   -0.017035   0.000000   0.000000  -0.001694   0.000000
   15  O  1 YY   -0.017450   0.000000   0.000000  -0.000804   0.000000
   16  O  1 ZZ   -0.016967   0.000000   0.000000  -0.004296   0.000000
   17  O  1 XY    0.000000   0.000000   0.000000   0.000000   0.000000
   18  O  1 XZ    0.000000   0.000000   0.000000   0.000000  -0.001812
   19  O  1 YZ    0.000000  -0.000156  -0.001548   0.000000   0.000000
   20  O  1 XX   -0.070949   0.000000   0.000000  -0.003234   0.000000
   21  O  1 YY   -0.063259   0.000000   0.000000  -0.047164   0.000000
   22  O  1 ZZ   -0.077449   0.000000   0.000000   0.027386   0.000000
   23  O  1 XY    0.000000   0.000000   0.000000   0.000000   0.000000
   24  O  1 XZ    0.000000   0.000000   0.000000   0.000000   0.025343
   25  O  1 YZ    0.000000   0.007834  -0.032280   0.000000   0.000000
   26  O  1 XX   -0.365871   0.000000   0.000000   0.037413   0.000000
   27  O  1 YY   -0.350774   0.000000   0.000000   0.253778   0.000000
   28  O  1 ZZ   -0.322519   0.000000   0.000000  -0.186327   0.000000
   29  O  1 XY    0.000000   0.000000   0.000000   0.000000   0.000000
   30  O  1 XZ    0.000000   0.000000   0.000000   0.000000  -0.153014
   31  O  1 YZ    0.000000   0.132063  -0.558650   0.000000   0.000000
   32  O  1 XXX   0.000000   0.000000   0.000000   0.000000   0.019564
   33  O  1 YYY   0.000000  -0.003251   0.015667   0.000000   0.000000
   34  O  1 ZZZ   0.005948   0.000000   0.000000   0.013452   0.000000
   35  O  1 XXY   0.000000  -0.011191   0.022069   0.000000   0.000000
   36  O  1 XXZ   0.002941   0.000000   0.000000   0.007179   0.000000
   37  O  1 YYX   0.000000   0.000000   0.000000   0.000000   0.008902
   38  O  1 YYZ   0.004152   0.000000   0.000000   0.003393   0.000000
   39  O  1 ZZX   0.000000   0.000000   0.000000   0.000000   0.010290
   40  O  1 ZZY   0.000000  -0.003898  -0.007987   0.000000   0.000000
   41  O  1 XYZ   0.000000   0.000000   0.000000   0.000000   0.000000
   42  H  2  S    0.024064   0.013177   0.089216  -0.027408   0.000000
   43  H  2  S   -0.038070   0.283604  -1.229201  -0.159019   0.000000
   44  H  2  S    0.983958   2.220464  -2.246655  -0.169757   0.000000
   45  H  2  X    0.000000   0.000000   0.000000   0.000000   0.011010
   46  H  2  Y   -0.003137  -0.001824   0.003353   0.003665   0.000000
   47  H  2  Z    0.001399   0.006908   0.000878   0.007672   0.000000
   48  H  2  X    0.000000   0.000000   0.000000   0.000000  -0.045500
   49  H  2  Y   -0.029904  -0.003573  -0.074354   0.003697   0.000000
   50  H  2  Z    0.019938  -0.030760   0.071897  -0.004619   0.000000
   51  H  2  X    0.000000   0.000000   0.000000   0.000000   0.950718
   52  H  2  Y    0.032957   0.493418  -1.266992   0.394088   0.000000
   53  H  2  Z   -0.085091  -0.138834   1.290491   0.797776   0.000000
   54  H  3  S    0.024064  -0.013177  -0.089216  -0.027408   0.000000
   55  H  3  S   -0.038070  -0.283604   1.229201  -0.159019   0.000000
   56  H  3  S    0.983958  -2.220464   2.246655  -0.169757   0.000000
   57  H  3  X    0.000000   0.000000   0.000000   0.000000   0.011010
   58  H  3  Y    0.003137  -0.001824   0.003353  -0.003665   0.000000
   59  H  3  Z    0.001399  -0.006908  -0.000878   0.007672   0.000000
   60  H  3  X    0.000000   0.000000   0.000000   0.000000  -0.045500
   61  H  3  Y    0.029904  -0.003573  -0.074354  -0.003697   0.000000
   62  H  3  Z    0.019938   0.030760  -0.071897  -0.004619   0.000000
   63  H  3  X    0.000000   0.000000   0.000000   0.000000   0.950718
   64  H  3  Y   -0.032957   0.493418  -1.266992  -0.394088   0.000000
   65  H  3  Z   -0.085091   0.138834  -1.290491   0.797776   0.000000

                     11         12         13         14         15
                    0.4292     0.4823     0.6408     0.6934     0.8531
                     A          A          A          A          A   
    1  O  1  S   -0.007132  -0.000000  -0.000000  -0.052760  -0.000000
    2  O  1  S    0.036219  -0.000000  -0.000000  -0.176817  -0.000000
    3  O  1  X   -0.000000  -0.000000  -0.000000   0.000000  -0.000000
    4  O  1  Y   -0.000000  -0.000000   0.110966   0.000000   0.148722
    5  O  1  Z   -0.088403  -0.000000  -0.000000   0.072068  -0.000000
    6  O  1  S    0.258844  -0.000000  -0.000000   0.045037  -0.000000
    7  O  1  X   -0.000000  -0.000000  -0.000000   0.000000  -0.000000
    8  O  1  Y   -0.000000  -0.000000   0.184520   0.000000   0.228191
    9  O  1  Z   -0.153857  -0.000000  -0.000000   0.114286  -0.000000
   10  O  1  S    3.279205  -0.000000  -0.000000   4.613679  -0.000000
   11  O  1  X   -0.000000  -0.000000  -0.000000   0.000000  -0.000000
   12  O  1  Y   -0.000000  -0.000000   0.025294   0.000000   3.655136
   13  O  1  Z    1.222539  -0.000000  -0.000000   1.635919  -0.000000
   14  O  1 XX    0.027220  -0.000000  -0.000000  -0.044493  -0.000000
   15  O  1 YY    0.030510  -0.000000  -0.000000  -0.054621  -0.000000
   16  O  1 ZZ    0.027903  -0.000000  -0.000000  -0.051907  -0.000000
   17  O  1 XY   -0.000000   0.000753  -0.000000   0.000000  -0.000000
   18  O  1 XZ   -0.000000  -0.000000  -0.000000   0.000000  -0.000000
   19  O  1 YZ   -0.000000  -0.000000  -0.001195   0.000000  -0.007744
   20  O  1 XX    0.105518  -0.000000  -0.000000  -0.206989  -0.000000
   21  O  1 YY    0.133672  -0.000000  -0.000000  -0.176729  -0.000000
   22  O  1 ZZ    0.117878  -0.000000  -0.000000  -0.192419  -0.000000
   23  O  1 XY   -0.000000  -0.042588  -0.000000   0.000000  -0.000000
   24  O  1 XZ   -0.000000  -0.000000  -0.000000   0.000000  -0.000000
   25  O  1 YZ   -0.000000  -0.000000   0.009619   0.000000  -0.017410
   26  O  1 XX    0.588417  -0.000000  -0.000000  -0.792617  -0.000000
   27  O  1 YY    1.165171  -0.000000  -0.000000  -0.458766  -0.000000
   28  O  1 ZZ    0.918190  -0.000000  -0.000000  -0.549997  -0.000000
   29  O  1 XY   -0.000000   0.148396  -0.000000   0.000000  -0.000000
   30  O  1 XZ   -0.000000  -0.000000  -0.000000   0.000000  -0.000000
   31  O  1 YZ   -0.000000  -0.000000  -0.138062   0.000000   0.609334
   32  O  1 XXX  -0.000000  -0.000000  -0.000000   0.000000  -0.000000
   33  O  1 YYY  -0.000000  -0.000000  -0.007555   0.000000   0.008049
   34  O  1 ZZZ  -0.015166  -0.000000  -0.000000   0.010244  -0.000000
   35  O  1 XXY  -0.000000  -0.000000   0.002128   0.000000  -0.019227
   36  O  1 XXZ  -0.012955  -0.000000  -0.000000  -0.004573  -0.000000
   37  O  1 YYX  -0.000000  -0.000000  -0.000000   0.000000  -0.000000
   38  O  1 YYZ   0.012232  -0.000000  -0.000000   0.034291  -0.000000
   39  O  1 ZZX  -0.000000  -0.000000  -0.000000   0.000000  -0.000000
   40  O  1 ZZY  -0.000000  -0.000000   0.009387   0.000000   0.004685
   41  O  1 XYZ  -0.000000  -0.006106  -0.000000   0.000000  -0.000000
   42  H  2  S    0.081446  -0.000000   0.022624  -0.059114   0.086193
   43  H  2  S   -1.190525  -0.000000  -0.003779  -2.187675   3.420154
   44  H  2  S   -1.315146  -0.000000  -2.452252   0.393610   2.555808
   45  H  2  X   -0.000000   0.014326  -0.000000   0.000000  -0.000000
   46  H  2  Y    0.001057  -0.000000  -0.012831   0.010599  -0.000221
   47  H  2  Z   -0.000343  -0.000000  -0.011376  -0.004386   0.006457
   48  H  2  X   -0.000000  -0.046807  -0.000000   0.000000  -0.000000
   49  H  2  Y   -0.075458  -0.000000   0.049555  -0.132870   0.071414
   50  H  2  Z    0.025010  -0.000000   0.087942   0.067492  -0.064076
   51  H  2  X   -0.000000   1.087062  -0.000000   0.000000  -0.000000
   52  H  2  Y   -1.414764  -0.000000  -1.920429  -0.726193   2.310857
   53  H  2  Z    1.116654  -0.000000  -0.592791   0.268567  -1.353341
   54  H  3  S    0.081446  -0.000000  -0.022624  -0.059114  -0.086193
   55  H  3  S   -1.190525  -0.000000   0.003779  -2.187675  -3.420154
   56  H  3  S   -1.315146  -0.000000   2.452252   0.393610  -2.555808
   57  H  3  X   -0.000000  -0.014326  -0.000000   0.000000  -0.000000
   58  H  3  Y   -0.001057  -0.000000  -0.012831  -0.010599  -0.000221
   59  H  3  Z   -0.000343  -0.000000   0.011376  -0.004386  -0.006457
   60  H  3  X   -0.000000   0.046807  -0.000000   0.000000  -0.000000
   61  H  3  Y    0.075458  -0.000000   0.049555   0.132870   0.071414
   62  H  3  Z    0.025010  -0.000000  -0.087942   0.067492   0.064076
   63  H  3  X   -0.000000  -1.087062  -0.000000   0.000000  -0.000000
   64  H  3  Y    1.414764  -0.000000  -1.920429   0.726193   2.310857
   65  H  3  Z    1.116654  -0.000000   0.592791   0.268567   1.353341

                     16         17         18         19         20
                    0.9800     0.9969     1.0182     1.1928     1.1935
                     A          A          A          A          A   
    1  O  1  S    0.000000   0.010895   0.007637  -0.000000  -0.000000
    2  O  1  S    0.000000   0.030653   0.143717  -0.000000  -0.000000
    3  O  1  X    0.106642  -0.000000  -0.000000  -0.000000  -0.000000
    4  O  1  Y    0.000000  -0.000000  -0.000000  -0.000000   0.193937
    5  O  1  Z    0.000000  -0.135697   0.103309  -0.000000  -0.000000
    6  O  1  S    0.000000  -0.033187   0.521811  -0.000000  -0.000000
    7  O  1  X    0.285749  -0.000000  -0.000000  -0.000000  -0.000000
    8  O  1  Y    0.000000  -0.000000  -0.000000  -0.000000   0.485466
    9  O  1  Z    0.000000  -0.339946   0.187738  -0.000000  -0.000000
   10  O  1  S    0.000000  -0.156271   0.002894  -0.000000  -0.000000
   11  O  1  X   -0.388043  -0.000000  -0.000000  -0.000000  -0.000000
   12  O  1  Y    0.000000  -0.000000  -0.000000  -0.000000  -0.857523
   13  O  1  Z    0.000000   0.510085   0.669987  -0.000000  -0.000000
   14  O  1 XX    0.000000   0.019959   0.083279  -0.000000  -0.000000
   15  O  1 YY    0.000000   0.008253   0.066484  -0.000000  -0.000000
   16  O  1 ZZ    0.000000  -0.008007   0.079277  -0.000000  -0.000000
   17  O  1 XY    0.000000  -0.000000  -0.000000   0.020054  -0.000000
   18  O  1 XZ    0.016803  -0.000000  -0.000000  -0.000000  -0.000000
   19  O  1 YZ    0.000000  -0.000000  -0.000000  -0.000000   0.014346
   20  O  1 XX    0.000000   0.008207   0.340454  -0.000000  -0.000000
   21  O  1 YY    0.000000   0.035992   0.284935  -0.000000  -0.000000
   22  O  1 ZZ    0.000000   0.036287   0.312201  -0.000000  -0.000000
   23  O  1 XY    0.000000  -0.000000  -0.000000  -0.016424  -0.000000
   24  O  1 XZ   -0.013764  -0.000000  -0.000000  -0.000000  -0.000000
   25  O  1 YZ    0.000000  -0.000000  -0.000000  -0.000000  -0.014080
   26  O  1 XX    0.000000   0.841970   2.196893  -0.000000  -0.000000
   27  O  1 YY    0.000000   0.305240   1.020106  -0.000000  -0.000000
   28  O  1 ZZ    0.000000  -0.619344   1.867754  -0.000000  -0.000000
   29  O  1 XY    0.000000  -0.000000  -0.000000   1.429021  -0.000000
   30  O  1 XZ    0.924231  -0.000000  -0.000000  -0.000000  -0.000000
   31  O  1 YZ    0.000000  -0.000000  -0.000000  -0.000000   0.985214
   32  O  1 XXX   0.025981  -0.000000  -0.000000  -0.000000  -0.000000
   33  O  1 YYY   0.000000  -0.000000  -0.000000  -0.000000   0.062812
   34  O  1 ZZZ   0.000000  -0.042687  -0.007737  -0.000000  -0.000000
   35  O  1 XXY   0.000000  -0.000000  -0.000000  -0.000000   0.028852
   36  O  1 XXZ   0.000000  -0.011266   0.003519  -0.000000  -0.000000
   37  O  1 YYX   0.013070  -0.000000  -0.000000  -0.000000  -0.000000
   38  O  1 YYZ   0.000000  -0.007635  -0.034192  -0.000000  -0.000000
   39  O  1 ZZX   0.022324  -0.000000  -0.000000  -0.000000  -0.000000
   40  O  1 ZZY   0.000000  -0.000000  -0.000000  -0.000000   0.040193
   41  O  1 XYZ   0.000000  -0.000000  -0.000000   0.011027  -0.000000
   42  H  2  S    0.000000  -0.016075  -0.040738  -0.000000  -0.060766
   43  H  2  S    0.000000   0.149743  -0.830998  -0.000000   0.822856
   44  H  2  S    0.000000  -0.258499  -1.108870  -0.000000  -0.525213
   45  H  2  X    0.000696  -0.000000  -0.000000  -0.005275  -0.000000
   46  H  2  Y    0.000000   0.003359  -0.004907  -0.000000  -0.000143
   47  H  2  Z    0.000000  -0.002047   0.006627  -0.000000  -0.004668
   48  H  2  X    0.036592  -0.000000  -0.000000   0.000417  -0.000000
   49  H  2  Y    0.000000  -0.087573   0.130459  -0.000000  -0.034200
   50  H  2  Z    0.000000   0.014310  -0.079336  -0.000000   0.086670
   51  H  2  X   -0.124909  -0.000000  -0.000000   0.885920  -0.000000
   52  H  2  Y    0.000000   0.115248  -1.160529  -0.000000   0.365558
   53  H  2  Z    0.000000   0.080507   0.737351  -0.000000   0.462047
   54  H  3  S    0.000000  -0.016075  -0.040738  -0.000000   0.060766
   55  H  3  S    0.000000   0.149743  -0.830998  -0.000000  -0.822856
   56  H  3  S    0.000000  -0.258499  -1.108870  -0.000000   0.525213
   57  H  3  X    0.000696  -0.000000  -0.000000   0.005275  -0.000000
   58  H  3  Y    0.000000  -0.003359   0.004907  -0.000000  -0.000143
   59  H  3  Z    0.000000  -0.002047   0.006627  -0.000000   0.004668
   60  H  3  X    0.036592  -0.000000  -0.000000  -0.000417  -0.000000
   61  H  3  Y    0.000000   0.087573  -0.130459  -0.000000  -0.034200
   62  H  3  Z    0.000000   0.014310  -0.079336  -0.000000  -0.086670
   63  H  3  X   -0.124909  -0.000000  -0.000000  -0.885920  -0.000000
   64  H  3  Y    0.000000  -0.115248   1.160529  -0.000000   0.365558
   65  H  3  Z    0.000000   0.080507   0.737351  -0.000000  -0.462047

                     21         22         23         24         25
                    1.2779     1.3334     1.3900     1.5759     2.0528
                     A          A          A          A          A   
    1  O  1  S    0.002961   0.000000  -0.018792   0.000000   0.000000
    2  O  1  S    0.056687   0.000000  -0.136676   0.000000   0.000000
    3  O  1  X    0.000000  -0.252856  -0.000000   0.000000   0.000000
    4  O  1  Y    0.000000   0.000000  -0.000000  -0.140235   0.000000
    5  O  1  Z    0.199302   0.000000   0.052384   0.000000   0.000000
    6  O  1  S    0.249415   0.000000  -0.295069   0.000000   0.000000
    7  O  1  X    0.000000  -0.653085  -0.000000   0.000000   0.000000
    8  O  1  Y    0.000000   0.000000  -0.000000  -0.387503   0.000000
    9  O  1  Z    0.467458   0.000000   0.200616   0.000000   0.000000
   10  O  1  S   -0.351066   0.000000  -4.522069   0.000000   0.000000
   11  O  1  X    0.000000   2.095520  -0.000000   0.000000   0.000000
   12  O  1  Y    0.000000   0.000000  -0.000000   8.586052   0.000000
   13  O  1  Z   -1.256278   0.000000  -4.437907   0.000000   0.000000
   14  O  1 XX    0.027112   0.000000  -0.053579   0.000000   0.000000
   15  O  1 YY    0.044635   0.000000  -0.063729   0.000000   0.000000
   16  O  1 ZZ    0.018124   0.000000  -0.061847   0.000000   0.000000
   17  O  1 XY    0.000000   0.000000  -0.000000   0.000000   0.001729
   18  O  1 XZ    0.000000   0.008598  -0.000000   0.000000   0.000000
   19  O  1 YZ    0.000000   0.000000  -0.000000   0.003683   0.000000
   20  O  1 XX    0.144901   0.000000  -0.267007   0.000000   0.000000
   21  O  1 YY    0.096233   0.000000  -0.238706   0.000000   0.000000
   22  O  1 ZZ    0.133255   0.000000  -0.249928   0.000000   0.000000
   23  O  1 XY    0.000000   0.000000  -0.000000   0.000000   0.077804
   24  O  1 XZ    0.000000  -0.012061  -0.000000   0.000000   0.000000
   25  O  1 YZ    0.000000   0.000000  -0.000000   0.026340   0.000000
   26  O  1 XX    0.690374   0.000000  -0.508735   0.000000   0.000000
   27  O  1 YY    1.765038   0.000000  -3.367452   0.000000   0.000000
   28  O  1 ZZ   -0.361664   0.000000  -2.480533   0.000000   0.000000
   29  O  1 XY    0.000000   0.000000  -0.000000   0.000000  -0.693985
   30  O  1 XZ    0.000000   0.813123  -0.000000   0.000000   0.000000
   31  O  1 YZ    0.000000   0.000000  -0.000000   3.638667   0.000000
   32  O  1 XXX   0.000000  -0.108738  -0.000000   0.000000   0.000000
   33  O  1 YYY   0.000000   0.000000  -0.000000  -0.044298   0.000000
   34  O  1 ZZZ   0.047938   0.000000   0.049825   0.000000   0.000000
   35  O  1 XXY   0.000000   0.000000  -0.000000  -0.067728   0.000000
   36  O  1 XXZ   0.032805   0.000000   0.040062   0.000000   0.000000
   37  O  1 YYX   0.000000  -0.044442  -0.000000   0.000000   0.000000
   38  O  1 YYZ   0.017702   0.000000  -0.027267   0.000000   0.000000
   39  O  1 ZZX   0.000000  -0.039548  -0.000000   0.000000   0.000000
   40  O  1 ZZY   0.000000   0.000000  -0.000000   0.029998   0.000000
   41  O  1 XYZ   0.000000   0.000000  -0.000000   0.000000  -0.017665
   42  H  2  S    0.020525   0.000000   0.063324   0.061552   0.000000
   43  H  2  S   -0.316229   0.000000   5.032114   7.449202   0.000000
   44  H  2  S   -0.386630   0.000000   0.756190   1.839124   0.000000
   45  H  2  X    0.000000   0.007842  -0.000000   0.000000   0.062542
   46  H  2  Y   -0.010316   0.000000  -0.019698  -0.027338   0.000000
   47  H  2  Z   -0.000837   0.000000   0.012607   0.020041   0.000000
   48  H  2  X    0.000000  -0.064364  -0.000000   0.000000  -0.999781
   49  H  2  Y    0.129545   0.000000   0.250367   0.483413   0.000000
   50  H  2  Z   -0.086021   0.000000  -0.192888  -0.313008   0.000000
   51  H  2  X    0.000000  -0.801346  -0.000000   0.000000   0.247691
   52  H  2  Y    0.100540   0.000000   1.197974   1.556155   0.000000
   53  H  2  Z    0.923842   0.000000  -0.715210  -1.434775   0.000000
   54  H  3  S    0.020525   0.000000   0.063324  -0.061552   0.000000
   55  H  3  S   -0.316229   0.000000   5.032114  -7.449202   0.000000
   56  H  3  S   -0.386630   0.000000   0.756190  -1.839124   0.000000
   57  H  3  X    0.000000   0.007842  -0.000000   0.000000  -0.062542
   58  H  3  Y    0.010316   0.000000   0.019698  -0.027338   0.000000
   59  H  3  Z   -0.000837   0.000000   0.012607  -0.020041   0.000000
   60  H  3  X    0.000000  -0.064364  -0.000000   0.000000   0.999781
   61  H  3  Y   -0.129545   0.000000  -0.250367   0.483413   0.000000
   62  H  3  Z   -0.086021   0.000000  -0.192888   0.313008   0.000000
   63  H  3  X    0.000000  -0.801346  -0.000000   0.000000  -0.247691
   64  H  3  Y   -0.100540   0.000000  -1.197974   1.556155   0.000000
   65  H  3  Z    0.923842   0.000000  -0.715210   1.434775   0.000000

                     26         27         28         29         30
                    2.1115     2.1675     2.3310     2.4052     2.6207
                     A          A          A          A          A   
    1  O  1  S    0.000000  -0.000000   0.070512   0.078712  -0.000000
    2  O  1  S    0.000000  -0.000000  -0.003806  -0.031012  -0.000000
    3  O  1  X   -0.084663  -0.000000  -0.000000  -0.000000  -0.000000
    4  O  1  Y    0.000000   0.027566  -0.000000  -0.000000   0.208134
    5  O  1  Z    0.000000  -0.000000  -0.002544  -0.011171  -0.000000
    6  O  1  S    0.000000  -0.000000  -1.154584  -1.663877  -0.000000
    7  O  1  X   -0.091275  -0.000000  -0.000000  -0.000000  -0.000000
    8  O  1  Y    0.000000  -0.015543  -0.000000  -0.000000   0.357855
    9  O  1  Z    0.000000  -0.000000  -0.008057   0.132108  -0.000000
   10  O  1  S    0.000000  -0.000000   6.155819   7.554237  -0.000000
   11  O  1  X   -0.488377  -0.000000  -0.000000  -0.000000  -0.000000
   12  O  1  Y    0.000000   2.558944  -0.000000  -0.000000   0.157668
   13  O  1  Z    0.000000  -0.000000   2.114779   0.410504  -0.000000
   14  O  1 XX    0.000000  -0.000000  -0.074182  -0.092385  -0.000000
   15  O  1 YY    0.000000  -0.000000  -0.084174  -0.113817  -0.000000
   16  O  1 ZZ    0.000000  -0.000000  -0.079119  -0.105478  -0.000000
   17  O  1 XY    0.000000  -0.000000  -0.000000  -0.000000  -0.000000
   18  O  1 XZ    0.000454  -0.000000  -0.000000  -0.000000  -0.000000
   19  O  1 YZ    0.000000   0.003077  -0.000000  -0.000000   0.001132
   20  O  1 XX    0.000000  -0.000000  -0.433241  -0.569924  -0.000000
   21  O  1 YY    0.000000  -0.000000  -0.186169  -0.382313  -0.000000
   22  O  1 ZZ    0.000000  -0.000000  -0.362732  -0.363593  -0.000000
   23  O  1 XY    0.000000  -0.000000  -0.000000  -0.000000  -0.000000
   24  O  1 XZ    0.049585  -0.000000  -0.000000  -0.000000  -0.000000
   25  O  1 YZ    0.000000   0.052345  -0.000000  -0.000000  -0.281508
   26  O  1 XX    0.000000  -0.000000  -0.964284  -1.540542  -0.000000
   27  O  1 YY    0.000000  -0.000000  -1.397321  -0.542923  -0.000000
   28  O  1 ZZ    0.000000  -0.000000   0.493520  -2.127366  -0.000000
   29  O  1 XY    0.000000  -0.000000  -0.000000  -0.000000  -0.000000
   30  O  1 XZ   -0.638151  -0.000000  -0.000000  -0.000000  -0.000000
   31  O  1 YZ    0.000000   0.781164  -0.000000  -0.000000   0.877619
   32  O  1 XXX  -0.000967  -0.000000  -0.000000  -0.000000  -0.000000
   33  O  1 YYY   0.000000   0.007320  -0.000000  -0.000000  -0.017217
   34  O  1 ZZZ   0.000000  -0.000000   0.031427   0.094811  -0.000000
   35  O  1 XXY   0.000000  -0.007274  -0.000000  -0.000000   0.031293
   36  O  1 XXZ   0.000000  -0.000000   0.004609   0.004069  -0.000000
   37  O  1 YYX  -0.015004  -0.000000  -0.000000  -0.000000  -0.000000
   38  O  1 YYZ   0.000000  -0.000000   0.081794   0.159460  -0.000000
   39  O  1 ZZX  -0.010686  -0.000000  -0.000000  -0.000000  -0.000000
   40  O  1 ZZY   0.000000  -0.016842  -0.000000  -0.000000  -0.038332
   41  O  1 XYZ   0.000000  -0.000000  -0.000000  -0.000000  -0.000000
   42  H  2  S    0.000000  -0.049073   0.467784   0.521830   0.884337
   43  H  2  S    0.000000   2.285699  -2.418581  -2.075766  -0.424541
   44  H  2  S    0.000000   1.618346   0.100222   0.275192  -0.393766
   45  H  2  X   -0.066285  -0.000000  -0.000000  -0.000000  -0.000000
   46  H  2  Y    0.000000   0.026482   0.045875  -0.014591  -0.010993
   47  H  2  Z    0.000000   0.050008   0.042484  -0.044671   0.020541
   48  H  2  X    1.021071  -0.000000  -0.000000  -0.000000  -0.000000
   49  H  2  Y    0.000000  -0.556122  -0.784748   0.017278   0.332279
   50  H  2  Z    0.000000  -0.808254  -0.614194   0.937421  -0.404917
   51  H  2  X   -0.113552  -0.000000  -0.000000  -0.000000  -0.000000
   52  H  2  Y    0.000000   1.490160  -0.522924  -0.244988  -0.601120
   53  H  2  Z    0.000000  -0.146328   0.181076   0.227726   0.466926
   54  H  3  S    0.000000   0.049073   0.467784   0.521830  -0.884337
   55  H  3  S    0.000000  -2.285699  -2.418581  -2.075766   0.424541
   56  H  3  S    0.000000  -1.618346   0.100222   0.275192   0.393766
   57  H  3  X   -0.066285  -0.000000  -0.000000  -0.000000  -0.000000
   58  H  3  Y    0.000000   0.026482  -0.045875   0.014591  -0.010993
   59  H  3  Z    0.000000  -0.050008   0.042484  -0.044671  -0.020541
   60  H  3  X    1.021071  -0.000000  -0.000000  -0.000000  -0.000000
   61  H  3  Y    0.000000  -0.556122   0.784748  -0.017278   0.332279
   62  H  3  Z    0.000000   0.808254  -0.614194   0.937421   0.404917
   63  H  3  X   -0.113552  -0.000000  -0.000000  -0.000000  -0.000000
   64  H  3  Y    0.000000   1.490160   0.522924   0.244988  -0.601120
   65  H  3  Z    0.000000   0.146328   0.181076   0.227726  -0.466926

                     31         32         33         34         35
                    2.9002     3.1202     3.2819     3.8205     3.8532
                     A          A          A          A          A   
    1  O  1  S    0.023398   0.000000   0.119772   0.000000   0.003005
    2  O  1  S   -0.094680   0.000000  -0.134770   0.000000  -0.017121
    3  O  1  X   -0.000000   0.000000   0.000000   0.073193  -0.000000
    4  O  1  Y   -0.000000   0.120138   0.000000   0.000000  -0.000000
    5  O  1  Z    0.239620   0.000000  -0.025103   0.000000   0.099972
    6  O  1  S   -1.397790   0.000000  -2.667405   0.000000  -0.072817
    7  O  1  X   -0.000000   0.000000   0.000000   0.032109  -0.000000
    8  O  1  Y   -0.000000   0.558059   0.000000   0.000000  -0.000000
    9  O  1  Z    0.534090   0.000000  -0.249362   0.000000   0.083511
   10  O  1  S    7.877020   0.000000   0.091247   0.000000   0.291154
   11  O  1  X   -0.000000   0.000000   0.000000  -0.223538  -0.000000
   12  O  1  Y   -0.000000   6.887216   0.000000   0.000000  -0.000000
   13  O  1  Z    1.783137   0.000000  -4.292813   0.000000  -0.250226
   14  O  1 XX   -0.068660   0.000000  -0.220458   0.000000  -0.012989
   15  O  1 YY   -0.092118   0.000000  -0.194065   0.000000  -0.012171
   16  O  1 ZZ   -0.081266   0.000000  -0.205143   0.000000  -0.015541
   17  O  1 XY   -0.000000   0.000000   0.000000   0.000000  -0.000000
   18  O  1 XZ   -0.000000   0.000000   0.000000  -0.002240  -0.000000
   19  O  1 YZ   -0.000000  -0.034708   0.000000   0.000000  -0.000000
   20  O  1 XX   -0.168928   0.000000  -0.676543   0.000000  -0.765665
   21  O  1 YY   -0.506087   0.000000  -1.181499   0.000000  -0.462637
   22  O  1 ZZ   -0.352770   0.000000  -0.973207   0.000000   1.080537
   23  O  1 XY   -0.000000   0.000000   0.000000   0.000000  -0.000000
   24  O  1 XZ   -0.000000   0.000000   0.000000   1.140635  -0.000000
   25  O  1 YZ   -0.000000   0.244367   0.000000   0.000000  -0.000000
   26  O  1 XX   -2.430234   0.000000  -2.434285   0.000000   0.184930
   27  O  1 YY   -1.079957   0.000000  -4.230540   0.000000   0.049004
   28  O  1 ZZ   -1.053156   0.000000  -3.913406   0.000000  -0.703248
   29  O  1 XY   -0.000000   0.000000   0.000000   0.000000  -0.000000
   30  O  1 XZ   -0.000000   0.000000   0.000000  -0.561668  -0.000000
   31  O  1 YZ   -0.000000   2.610772   0.000000   0.000000  -0.000000
   32  O  1 XXX  -0.000000   0.000000   0.000000  -0.034007  -0.000000
   33  O  1 YYY  -0.000000   0.257717   0.000000   0.000000  -0.000000
   34  O  1 ZZZ   0.069286   0.000000  -0.049616   0.000000  -0.012520
   35  O  1 XXY  -0.000000   0.007278   0.000000   0.000000  -0.000000
   36  O  1 XXZ   0.033839   0.000000   0.002301   0.000000  -0.033512
   37  O  1 YYX  -0.000000   0.000000   0.000000  -0.025147  -0.000000
   38  O  1 YYZ   0.111781   0.000000  -0.219670   0.000000  -0.059004
   39  O  1 ZZX  -0.000000   0.000000   0.000000   0.026935  -0.000000
   40  O  1 ZZY  -0.000000   0.224981   0.000000   0.000000  -0.000000
   41  O  1 XYZ  -0.000000   0.000000   0.000000   0.000000  -0.000000
   42  H  2  S   -0.431998  -0.649990  -0.710779   0.000000  -0.112993
   43  H  2  S   -2.216455   7.656984   6.073395   0.000000   0.231443
   44  H  2  S    0.395989   1.127110   0.708151   0.000000  -0.042505
   45  H  2  X   -0.000000   0.000000   0.000000   0.027249  -0.000000
   46  H  2  Y    0.061391  -0.051406  -0.054607   0.000000   0.036122
   47  H  2  Z   -0.017955   0.050864   0.031046   0.000000   0.016610
   48  H  2  X   -0.000000   0.000000   0.000000  -0.124107  -0.000000
   49  H  2  Y   -1.341067   1.401627   1.100373   0.000000  -0.165399
   50  H  2  Z    0.650045  -1.258300  -0.613677   0.000000  -0.084739
   51  H  2  X   -0.000000   0.000000   0.000000   0.200762  -0.000000
   52  H  2  Y    0.162475   1.397614   1.213009   0.000000   0.171929
   53  H  2  Z   -0.244142  -1.027886  -0.824583   0.000000   0.130968
   54  H  3  S   -0.431998   0.649990  -0.710779   0.000000  -0.112993
   55  H  3  S   -2.216455  -7.656984   6.073395   0.000000   0.231443
   56  H  3  S    0.395989  -1.127110   0.708151   0.000000  -0.042505
   57  H  3  X   -0.000000   0.000000   0.000000   0.027249  -0.000000
   58  H  3  Y   -0.061391  -0.051406   0.054607   0.000000  -0.036122
   59  H  3  Z   -0.017955  -0.050864   0.031046   0.000000   0.016610
   60  H  3  X   -0.000000   0.000000   0.000000  -0.124107  -0.000000
   61  H  3  Y    1.341067   1.401627  -1.100373   0.000000   0.165399
   62  H  3  Z    0.650045   1.258300  -0.613677   0.000000  -0.084739
   63  H  3  X   -0.000000   0.000000   0.000000   0.200762  -0.000000
   64  H  3  Y   -0.162475   1.397614  -1.213009   0.000000  -0.171929
   65  H  3  Z   -0.244142   1.027886  -0.824583   0.000000   0.130968

                     36         37         38         39         40
                    3.9355     4.1599     4.2523     5.1868     5.4077
                     A          A          A          A          A   
    1  O  1  S    0.000000   0.018593   0.000000  -0.000000   0.004886
    2  O  1  S    0.000000  -0.046700   0.000000  -0.000000   0.033189
    3  O  1  X    0.000000  -0.000000   0.000000  -0.701909   0.000000
    4  O  1  Y    0.000000  -0.000000   0.288726  -0.000000   0.000000
    5  O  1  Z    0.000000   0.222130   0.000000  -0.000000  -0.564479
    6  O  1  S    0.000000  -0.871444   0.000000  -0.000000  -0.620409
    7  O  1  X    0.000000  -0.000000   0.000000  -0.683948   0.000000
    8  O  1  Y    0.000000  -0.000000   0.477342   0.000000   0.000000
    9  O  1  Z    0.000000   0.350855   0.000000  -0.000000  -0.471604
   10  O  1  S    0.000000   3.427815   0.000000  -0.000000   2.034975
   11  O  1  X    0.000000  -0.000000   0.000000  -0.801934   0.000000
   12  O  1  Y    0.000000  -0.000000   1.337201  -0.000000   0.000000
   13  O  1  Z    0.000000   0.502867   0.000000  -0.000000  -0.282428
   14  O  1 XX    0.000000  -0.048169   0.000000  -0.000000   0.011743
   15  O  1 YY    0.000000  -0.049868   0.000000  -0.000000   0.014748
   16  O  1 ZZ    0.000000  -0.047481   0.000000  -0.000000   0.009168
   17  O  1 XY   -0.001241  -0.000000   0.000000  -0.000000   0.000000
   18  O  1 XZ    0.000000  -0.000000   0.000000  -0.001891   0.000000
   19  O  1 YZ    0.000000  -0.000000   0.001474  -0.000000   0.000000
   20  O  1 XX    0.000000  -1.043713   0.000000  -0.000000  -0.204378
   21  O  1 YY    0.000000   0.884347   0.000000  -0.000000   0.210198
   22  O  1 ZZ    0.000000  -0.443915   0.000000  -0.000000   0.132241
   23  O  1 XY    1.170657  -0.000000   0.000000  -0.000000   0.000000
   24  O  1 XZ    0.000000  -0.000000   0.000000   0.109343   0.000000
   25  O  1 YZ    0.000000  -0.000000   1.167254  -0.000000   0.000000
   26  O  1 XX    0.000000  -0.827705   0.000000  -0.000000  -0.477186
   27  O  1 YY    0.000000  -1.508253   0.000000  -0.000000  -0.474124
   28  O  1 ZZ    0.000000  -0.755169   0.000000  -0.000000  -0.512593
   29  O  1 XY   -0.667618  -0.000000   0.000000  -0.000000   0.000000
   30  O  1 XZ    0.000000  -0.000000   0.000000  -0.143587   0.000000
   31  O  1 YZ    0.000000  -0.000000  -0.011574  -0.000000   0.000000
   32  O  1 XXX   0.000000  -0.000000   0.000000   1.229112   0.000000
   33  O  1 YYY   0.000000  -0.000000  -0.306325  -0.000000   0.000000
   34  O  1 ZZZ   0.000000  -0.157087   0.000000  -0.000000   1.099220
   35  O  1 XXY   0.000000  -0.000000  -0.038631  -0.000000   0.000000
   36  O  1 XXZ   0.000000  -0.046996   0.000000  -0.000000   0.919274
   37  O  1 YYX   0.000000  -0.000000   0.000000   0.494127   0.000000
   38  O  1 YYZ   0.000000  -0.182630   0.000000  -0.000000   0.090071
   39  O  1 ZZX   0.000000  -0.000000   0.000000   0.533081   0.000000
   40  O  1 ZZY   0.000000  -0.000000  -0.175504  -0.000000   0.000000
   41  O  1 XYZ   0.004852  -0.000000   0.000000  -0.000000   0.000000
   42  H  2  S    0.000000  -0.358861   0.306847  -0.000000  -0.082499
   43  H  2  S    0.000000  -0.162140   0.882981  -0.000000  -0.414290
   44  H  2  S    0.000000   0.177846   0.201493  -0.000000   0.106317
   45  H  2  X   -0.032615  -0.000000   0.000000   0.019741   0.000000
   46  H  2  Y    0.000000   0.035651  -0.081234  -0.000000   0.036277
   47  H  2  Z    0.000000  -0.060136   0.056924  -0.000000   0.003386
   48  H  2  X    0.210662  -0.000000   0.000000  -0.108824   0.000000
   49  H  2  Y    0.000000  -0.424143   0.590254  -0.000000  -0.455960
   50  H  2  Z    0.000000   0.442330  -0.363640  -0.000000   0.216891
   51  H  2  X   -0.386407  -0.000000   0.000000   0.262252   0.000000
   52  H  2  Y    0.000000  -0.004044  -0.050507  -0.000000   0.080548
   53  H  2  Z    0.000000  -0.319599  -0.258504  -0.000000   0.070054
   54  H  3  S    0.000000  -0.358861  -0.306847  -0.000000  -0.082499
   55  H  3  S    0.000000  -0.162140  -0.882981  -0.000000  -0.414290
   56  H  3  S    0.000000   0.177846  -0.201493  -0.000000   0.106317
   57  H  3  X    0.032615  -0.000000   0.000000   0.019741   0.000000
   58  H  3  Y    0.000000  -0.035651  -0.081234  -0.000000  -0.036277
   59  H  3  Z    0.000000  -0.060136  -0.056924  -0.000000   0.003386
   60  H  3  X   -0.210662  -0.000000   0.000000  -0.108824   0.000000
   61  H  3  Y    0.000000   0.424143   0.590254  -0.000000   0.455960
   62  H  3  Z    0.000000   0.442330   0.363640  -0.000000   0.216891
   63  H  3  X    0.386407  -0.000000   0.000000   0.262252   0.000000
   64  H  3  Y    0.000000   0.004044  -0.050507  -0.000000  -0.080548
   65  H  3  Z    0.000000  -0.319599   0.258504  -0.000000   0.070054

                     41         42         43         44         45
                    5.4477     5.5552     5.6405     5.7586     5.8259
                     A          A          A          A          A   
    1  O  1  S   -0.000000  -0.000000  -0.002441   0.000000  -0.000000
    2  O  1  S   -0.000000  -0.000000  -0.023318   0.000000  -0.000000
    3  O  1  X    0.007039  -0.000000  -0.000000  -0.017092  -0.000000
    4  O  1  Y   -0.000000   0.500599  -0.000000   0.000000  -0.000000
    5  O  1  Z   -0.000000  -0.000000  -0.116887   0.000000  -0.000000
    6  O  1  S   -0.000000  -0.000000   0.022190   0.000000  -0.000000
    7  O  1  X    0.012761  -0.000000  -0.000000  -0.081051  -0.000000
    8  O  1  Y   -0.000000   0.403129  -0.000000   0.000000  -0.000000
    9  O  1  Z   -0.000000  -0.000000  -0.113870   0.000000  -0.000000
   10  O  1  S   -0.000000  -0.000000   1.185112   0.000000  -0.000000
   11  O  1  X   -0.004169  -0.000000  -0.000000   0.238273  -0.000000
   12  O  1  Y   -0.000000   1.214536  -0.000000   0.000000  -0.000000
   13  O  1  Z   -0.000000  -0.000000   0.613987   0.000000  -0.000000
   14  O  1 XX   -0.000000  -0.000000  -0.008883   0.000000  -0.000000
   15  O  1 YY   -0.000000  -0.000000  -0.010405   0.000000  -0.000000
   16  O  1 ZZ   -0.000000  -0.000000  -0.012220   0.000000  -0.000000
   17  O  1 XY   -0.000000  -0.000000  -0.000000   0.000000   0.000059
   18  O  1 XZ   -0.001382  -0.000000  -0.000000  -0.000545  -0.000000
   19  O  1 YZ   -0.000000  -0.001557  -0.000000   0.000000  -0.000000
   20  O  1 XX   -0.000000  -0.000000  -0.088351   0.000000  -0.000000
   21  O  1 YY   -0.000000  -0.000000   0.010786   0.000000  -0.000000
   22  O  1 ZZ   -0.000000  -0.000000  -0.040721   0.000000  -0.000000
   23  O  1 XY   -0.000000  -0.000000  -0.000000   0.000000   0.029930
   24  O  1 XZ   -0.038790  -0.000000  -0.000000   0.011386  -0.000000
   25  O  1 YZ   -0.000000  -0.336624  -0.000000   0.000000  -0.000000
   26  O  1 XX   -0.000000  -0.000000  -0.157769   0.000000  -0.000000
   27  O  1 YY   -0.000000  -0.000000  -0.225910   0.000000  -0.000000
   28  O  1 ZZ   -0.000000  -0.000000   0.352339   0.000000  -0.000000
   29  O  1 XY   -0.000000  -0.000000  -0.000000   0.000000   0.280860
   30  O  1 XZ   -0.003855  -0.000000  -0.000000   0.225716  -0.000000
   31  O  1 YZ   -0.000000   0.328466  -0.000000   0.000000  -0.000000
   32  O  1 XXX  -0.265764  -0.000000  -0.000000  -0.926453  -0.000000
   33  O  1 YYY  -0.000000  -0.719276  -0.000000   0.000000  -0.000000
   34  O  1 ZZZ  -0.000000  -0.000000   1.227299   0.000000  -0.000000
   35  O  1 XXY  -0.000000  -1.138401  -0.000000   0.000000  -0.000000
   36  O  1 XXZ  -0.000000  -0.000000  -0.802984   0.000000  -0.000000
   37  O  1 YYX  -0.680707  -0.000000  -0.000000   0.950047  -0.000000
   38  O  1 YYZ  -0.000000  -0.000000  -0.223931   0.000000  -0.000000
   39  O  1 ZZX   0.996564  -0.000000  -0.000000   0.490415  -0.000000
   40  O  1 ZZY  -0.000000  -0.294976  -0.000000   0.000000  -0.000000
   41  O  1 XYZ  -0.000000  -0.000000  -0.000000   0.000000   1.063963
   42  H  2  S   -0.000000  -0.110554   0.001340   0.000000  -0.000000
   43  H  2  S   -0.000000   0.494735  -0.675723   0.000000  -0.000000
   44  H  2  S   -0.000000   0.491632   0.009259   0.000000  -0.000000
   45  H  2  X   -0.006616  -0.000000  -0.000000   0.088161  -0.111923
   46  H  2  Y   -0.000000   0.044387   0.019078   0.000000  -0.000000
   47  H  2  Z   -0.000000  -0.045811   0.031441   0.000000  -0.000000
   48  H  2  X    0.029021  -0.000000  -0.000000  -0.378633   0.429950
   49  H  2  Y   -0.000000  -0.331981  -0.390694   0.000000  -0.000000
   50  H  2  Z   -0.000000   0.261784  -0.137450   0.000000  -0.000000
   51  H  2  X   -0.006022  -0.000000  -0.000000  -0.002968  -0.046583
   52  H  2  Y   -0.000000   0.256604  -0.103440   0.000000  -0.000000
   53  H  2  Z   -0.000000  -0.293830   0.018306   0.000000  -0.000000
   54  H  3  S   -0.000000   0.110554   0.001340   0.000000  -0.000000
   55  H  3  S   -0.000000  -0.494735  -0.675723   0.000000  -0.000000
   56  H  3  S   -0.000000  -0.491632   0.009259   0.000000  -0.000000
   57  H  3  X   -0.006616  -0.000000  -0.000000   0.088161   0.111923
   58  H  3  Y   -0.000000   0.044387  -0.019078   0.000000  -0.000000
   59  H  3  Z   -0.000000   0.045811   0.031441   0.000000  -0.000000
   60  H  3  X    0.029021  -0.000000  -0.000000  -0.378633  -0.429950
   61  H  3  Y   -0.000000  -0.331981   0.390694   0.000000  -0.000000
   62  H  3  Z   -0.000000  -0.261784  -0.137450   0.000000  -0.000000
   63  H  3  X   -0.006022  -0.000000  -0.000000  -0.002968   0.046583
   64  H  3  Y   -0.000000   0.256604   0.103440   0.000000  -0.000000
   65  H  3  Z   -0.000000   0.293830   0.018306   0.000000  -0.000000

                     46         47         48         49         50
                    5.8264     6.3492     6.5477     7.3524     8.5926
                     A          A          A          A          A   
    1  O  1  S    0.000000  -0.000000   0.017572  -0.023353   0.000000
    2  O  1  S    0.000000  -0.000000   0.081149  -1.600213   0.000000
    3  O  1  X    0.000000  -0.000000  -0.000000  -0.000000   0.067674
    4  O  1  Y   -0.134585  -0.278557  -0.000000  -0.000000   0.000000
    5  O  1  Z    0.000000  -0.000000  -0.221739  -0.059234   0.000000
    6  O  1  S    0.000000  -0.000000  -1.009465   4.052248   0.000000
    7  O  1  X    0.000000  -0.000000  -0.000000  -0.000000  -0.126973
    8  O  1  Y   -0.138345  -0.090383  -0.000000  -0.000000   0.000000
    9  O  1  Z    0.000000  -0.000000  -0.111463  -0.111034   0.000000
   10  O  1  S    0.000000  -0.000000   4.703817   7.692380   0.000000
   11  O  1  X    0.000000  -0.000000  -0.000000  -0.000000   0.120472
   12  O  1  Y    0.996518   3.018615  -0.000000  -0.000000   0.000000
   13  O  1  Z    0.000000  -0.000000   1.434324  -1.210627   0.000000
   14  O  1 XX    0.000000  -0.000000   0.002057  -0.853168   0.000000
   15  O  1 YY    0.000000  -0.000000   0.033468  -0.826096   0.000000
   16  O  1 ZZ    0.000000  -0.000000   0.017406  -0.840748   0.000000
   17  O  1 XY    0.000000  -0.000000  -0.000000  -0.000000   0.000000
   18  O  1 XZ    0.000000  -0.000000  -0.000000  -0.000000  -0.025047
   19  O  1 YZ   -0.000083   0.017210  -0.000000  -0.000000   0.000000
   20  O  1 XX    0.000000  -0.000000  -0.148522  -3.798979   0.000000
   21  O  1 YY    0.000000  -0.000000   0.426051  -3.690582   0.000000
   22  O  1 ZZ    0.000000  -0.000000   0.181845  -3.748001   0.000000
   23  O  1 XY    0.000000  -0.000000  -0.000000  -0.000000   0.000000
   24  O  1 XZ    0.000000  -0.000000  -0.000000  -0.000000  -0.002919
   25  O  1 YZ    0.134131   0.446249  -0.000000  -0.000000   0.000000
   26  O  1 XX    0.000000  -0.000000  -1.002587  -2.776499   0.000000
   27  O  1 YY    0.000000  -0.000000   0.160728  -3.268271   0.000000
   28  O  1 ZZ    0.000000  -0.000000  -0.266709  -3.164114   0.000000
   29  O  1 XY    0.000000  -0.000000  -0.000000  -0.000000   0.000000
   30  O  1 XZ    0.000000  -0.000000  -0.000000  -0.000000   0.145976
   31  O  1 YZ    0.324707   1.530502  -0.000000  -0.000000   0.000000
   32  O  1 XXX   0.000000  -0.000000  -0.000000  -0.000000   0.191577
   33  O  1 YYY   1.382169   0.848882  -0.000000  -0.000000   0.000000
   34  O  1 ZZZ   0.000000  -0.000000   0.294795   0.035440   0.000000
   35  O  1 XXY  -0.261905  -0.535503  -0.000000  -0.000000   0.000000
   36  O  1 XXZ   0.000000  -0.000000  -0.190123   0.011314   0.000000
   37  O  1 YYX   0.000000  -0.000000  -0.000000  -0.000000  -0.048046
   38  O  1 YYZ   0.000000  -0.000000   1.328418   0.242798   0.000000
   39  O  1 ZZX   0.000000  -0.000000  -0.000000  -0.000000   0.005612
   40  O  1 ZZY  -0.734671   1.062246  -0.000000  -0.000000   0.000000
   41  O  1 XYZ   0.000000  -0.000000  -0.000000  -0.000000   0.000000
   42  H  2  S    0.011022   0.525562  -0.603347  -0.250481   0.000000
   43  H  2  S    1.071106   2.986382  -1.950434   1.514607   0.000000
   44  H  2  S    0.380338   0.266951   0.052994   0.446907   0.000000
   45  H  2  X    0.000000  -0.000000  -0.000000  -0.000000   0.897011
   46  H  2  Y    0.060952  -0.201151   0.183691  -0.095942   0.000000
   47  H  2  Z    0.109771   0.082969  -0.193727   0.088022   0.000000
   48  H  2  X    0.000000  -0.000000  -0.000000  -0.000000  -0.619576
   49  H  2  Y   -0.041316   0.882256  -0.842415   0.237683   0.000000
   50  H  2  Z   -0.547848  -0.604953   0.701693  -0.102770   0.000000
   51  H  2  X    0.000000  -0.000000  -0.000000  -0.000000   0.101011
   52  H  2  Y    0.403548   0.271959  -0.100335   0.390051   0.000000
   53  H  2  Z   -0.035194  -0.316573   0.016094  -0.302159   0.000000
   54  H  3  S   -0.011022  -0.525562  -0.603347  -0.250481   0.000000
   55  H  3  S   -1.071106  -2.986382  -1.950434   1.514607   0.000000
   56  H  3  S   -0.380338  -0.266951   0.052994   0.446907   0.000000
   57  H  3  X    0.000000  -0.000000  -0.000000  -0.000000   0.897011
   58  H  3  Y    0.060952  -0.201151  -0.183691   0.095942   0.000000
   59  H  3  Z   -0.109771  -0.082969  -0.193727   0.088022   0.000000
   60  H  3  X    0.000000  -0.000000  -0.000000  -0.000000  -0.619576
   61  H  3  Y   -0.041316   0.882256   0.842415  -0.237683   0.000000
   62  H  3  Z    0.547848   0.604953   0.701693  -0.102770   0.000000
   63  H  3  X    0.000000  -0.000000  -0.000000  -0.000000   0.101011
   64  H  3  Y    0.403548   0.271959   0.100335  -0.390051   0.000000
   65  H  3  Z    0.035194   0.316573   0.016094  -0.302159   0.000000

                     51         52         53         54         55
                    8.6625     8.6705     8.7931    10.0230    10.2444
                     A          A          A          A          A   
    1  O  1  S    0.000000   0.001975   0.000000  -0.000000  -0.009411
    2  O  1  S    0.000000  -0.001911   0.000000  -0.000000  -0.431950
    3  O  1  X    0.000000  -0.000000   0.000000  -0.000000   0.000000
    4  O  1  Y    0.000000  -0.000000   0.059486   0.217766   0.000000
    5  O  1  Z    0.000000   0.056752   0.000000  -0.000000   0.185515
    6  O  1  S    0.000000   0.145053   0.000000  -0.000000   1.757455
    7  O  1  X    0.000000  -0.000000   0.000000  -0.000000   0.000000
    8  O  1  Y    0.000000  -0.000000  -0.028785   0.058564   0.000000
    9  O  1  Z    0.000000  -0.061755   0.000000  -0.000000  -0.023046
   10  O  1  S    0.000000   0.506873   0.000000  -0.000000   2.419494
   11  O  1  X    0.000000  -0.000000   0.000000  -0.000000   0.000000
   12  O  1  Y    0.000000  -0.000000   1.110838   1.354595   0.000000
   13  O  1  Z    0.000000   0.736336   0.000000  -0.000000   0.606228
   14  O  1 XX    0.000000  -0.001671   0.000000  -0.000000  -0.102028
   15  O  1 YY    0.000000   0.026174   0.000000  -0.000000  -0.327475
   16  O  1 ZZ    0.000000  -0.042557   0.000000  -0.000000  -0.233499
   17  O  1 XY   -0.027870  -0.000000   0.000000  -0.000000   0.000000
   18  O  1 XZ    0.000000  -0.000000   0.000000  -0.000000   0.000000
   19  O  1 YZ    0.000000  -0.000000  -0.005662  -0.173154   0.000000
   20  O  1 XX    0.000000   0.028939   0.000000  -0.000000  -0.794630
   21  O  1 YY    0.000000   0.020907   0.000000  -0.000000  -1.160077
   22  O  1 ZZ    0.000000   0.010556   0.000000  -0.000000  -1.033220
   23  O  1 XY    0.019361  -0.000000   0.000000  -0.000000   0.000000
   24  O  1 XZ    0.000000  -0.000000   0.000000  -0.000000   0.000000
   25  O  1 YZ    0.000000  -0.000000  -0.056953  -0.302982   0.000000
   26  O  1 XX    0.000000   0.010265   0.000000  -0.000000  -0.507678
   27  O  1 YY    0.000000  -0.048408   0.000000  -0.000000  -0.361474
   28  O  1 ZZ    0.000000   0.603060   0.000000  -0.000000  -0.263440
   29  O  1 XY    0.097908  -0.000000   0.000000  -0.000000   0.000000
   30  O  1 XZ    0.000000  -0.000000   0.000000  -0.000000   0.000000
   31  O  1 YZ    0.000000  -0.000000   0.427012   0.448832   0.000000
   32  O  1 XXX   0.000000  -0.000000   0.000000  -0.000000   0.000000
   33  O  1 YYY   0.000000  -0.000000  -0.114794  -0.196331   0.000000
   34  O  1 ZZZ   0.000000   0.051883   0.000000  -0.000000   0.139602
   35  O  1 XXY   0.000000  -0.000000   0.029791   0.248548   0.000000
   36  O  1 XXZ   0.000000   0.017739   0.000000  -0.000000   0.224480
   37  O  1 YYX   0.000000  -0.000000   0.000000  -0.000000   0.000000
   38  O  1 YYZ   0.000000   0.046281   0.000000  -0.000000  -0.743187
   39  O  1 ZZX   0.000000  -0.000000   0.000000  -0.000000   0.000000
   40  O  1 ZZY   0.000000  -0.000000   0.169061  -0.451631   0.000000
   41  O  1 XYZ  -0.139940  -0.000000   0.000000  -0.000000   0.000000
   42  H  2  S    0.000000   0.004797  -0.015107  -0.356291   0.389195
   43  H  2  S    0.000000  -0.620201   1.015972   1.404997  -0.837534
   44  H  2  S    0.000000  -0.035080   0.575043   0.102113   0.083336
   45  H  2  X   -0.896771  -0.000000   0.000000  -0.000000   0.000000
   46  H  2  Y    0.000000   0.633438   0.430431  -0.833732   0.711312
   47  H  2  Z    0.000000   0.659550   0.797875   0.467466  -0.648243
   48  H  2  X    0.600485  -0.000000   0.000000  -0.000000   0.000000
   49  H  2  Y    0.000000  -0.604428  -0.234641   0.601500  -0.494520
   50  H  2  Z    0.000000  -0.504755  -0.609194  -0.392355   0.363169
   51  H  2  X   -0.183750  -0.000000   0.000000  -0.000000   0.000000
   52  H  2  Y    0.000000  -0.042174   0.526158   0.070962  -0.026413
   53  H  2  Z    0.000000   0.073165  -0.001341  -0.172493  -0.063297
   54  H  3  S    0.000000   0.004797   0.015107   0.356291   0.389195
   55  H  3  S    0.000000  -0.620201  -1.015972  -1.404997  -0.837534
   56  H  3  S    0.000000  -0.035080  -0.575043  -0.102113   0.083336
   57  H  3  X    0.896771  -0.000000   0.000000  -0.000000   0.000000
   58  H  3  Y    0.000000  -0.633438   0.430431  -0.833732  -0.711312
   59  H  3  Z    0.000000   0.659550  -0.797875  -0.467466  -0.648243
   60  H  3  X   -0.600485  -0.000000   0.000000  -0.000000   0.000000
   61  H  3  Y    0.000000   0.604428  -0.234641   0.601500   0.494520
   62  H  3  Z    0.000000  -0.504755   0.609194   0.392355   0.363169
   63  H  3  X    0.183750  -0.000000   0.000000  -0.000000   0.000000
   64  H  3  Y    0.000000   0.042174   0.526158   0.070962   0.026413
   65  H  3  Z    0.000000   0.073165   0.001341   0.172493  -0.063297

                     56         57         58         59         60
                   15.0261    15.0615    15.0857    15.4650    15.8933
                     A          A          A          A          A   
    1  O  1  S   -0.000000  -0.006404  -0.000000   0.037177  -0.000000
    2  O  1  S   -0.000000   0.015858  -0.000000  -0.115674  -0.000000
    3  O  1  X   -0.157015   0.000000  -0.000000   0.000000  -0.000000
    4  O  1  Y   -0.000000   0.000000  -0.000000   0.000000  -0.580504
    5  O  1  Z   -0.000000  -0.116729  -0.000000  -0.246731  -0.000000
    6  O  1  S   -0.000000  -0.098970  -0.000000   0.216307  -0.000000
    7  O  1  X    0.586091   0.000000  -0.000000   0.000000  -0.000000
    8  O  1  Y   -0.000000   0.000000  -0.000000   0.000000   1.895219
    9  O  1  Z   -0.000000   0.453448  -0.000000   0.758287  -0.000000
   10  O  1  S   -0.000000   0.154415  -0.000000   1.236730  -0.000000
   11  O  1  X    0.076471   0.000000  -0.000000   0.000000  -0.000000
   12  O  1  Y   -0.000000   0.000000  -0.000000   0.000000  -0.009858
   13  O  1  Z   -0.000000   0.167826  -0.000000   0.086946  -0.000000
   14  O  1 XX   -0.000000  -0.543708  -0.000000   0.873290  -0.000000
   15  O  1 YY   -0.000000  -0.561484  -0.000000  -1.120939  -0.000000
   16  O  1 ZZ   -0.000000   1.166030  -0.000000  -0.138050  -0.000000
   17  O  1 XY   -0.000000   0.000000   1.148377   0.000000  -0.000000
   18  O  1 XZ    1.143302   0.000000  -0.000000   0.000000  -0.000000
   19  O  1 YZ   -0.000000   0.000000  -0.000000   0.000000  -1.153217
   20  O  1 XX   -0.000000   0.328923  -0.000000  -0.864550  -0.000000
   21  O  1 YY   -0.000000   0.348376  -0.000000   0.469040  -0.000000
   22  O  1 ZZ   -0.000000  -0.623673  -0.000000  -0.188773  -0.000000
   23  O  1 XY   -0.000000   0.000000  -0.651336   0.000000  -0.000000
   24  O  1 XZ   -0.627116   0.000000  -0.000000   0.000000  -0.000000
   25  O  1 YZ   -0.000000   0.000000  -0.000000   0.000000   0.889353
   26  O  1 XX   -0.000000  -0.128367  -0.000000  -0.181554  -0.000000
   27  O  1 YY   -0.000000  -0.153635  -0.000000  -0.456705  -0.000000
   28  O  1 ZZ   -0.000000   0.256044  -0.000000  -0.261243  -0.000000
   29  O  1 XY   -0.000000   0.000000   0.259754   0.000000  -0.000000
   30  O  1 XZ    0.217615   0.000000  -0.000000   0.000000  -0.000000
   31  O  1 YZ   -0.000000   0.000000  -0.000000   0.000000  -0.142436
   32  O  1 XXX  -0.333821   0.000000  -0.000000   0.000000  -0.000000
   33  O  1 YYY   0.000000   0.000000  -0.000000   0.000000  -0.805551
   34  O  1 ZZZ  -0.000000  -0.268638  -0.000000  -0.358726  -0.000000
   35  O  1 XXY  -0.000000   0.000000  -0.000000   0.000000  -0.519300
   36  O  1 XXZ  -0.000000  -0.113880  -0.000000  -0.216727  -0.000000
   37  O  1 YYX  -0.160305   0.000000  -0.000000   0.000000  -0.000000
   38  O  1 YYZ  -0.000000  -0.132393  -0.000000   0.096222  -0.000000
   39  O  1 ZZX  -0.154173   0.000000  -0.000000   0.000000  -0.000000
   40  O  1 ZZY  -0.000000   0.000000  -0.000000   0.000000  -0.213831
   41  O  1 XYZ  -0.000000   0.000000  -0.016996   0.000000  -0.000000
   42  H  2  S   -0.000000   0.017412  -0.000000  -0.218575   0.260817
   43  H  2  S   -0.000000  -0.115242  -0.000000  -0.080955   0.018219
   44  H  2  S   -0.000000   0.026076  -0.000000   0.024072   0.017753
   45  H  2  X    0.029978   0.000000  -0.027507   0.000000  -0.000000
   46  H  2  Y   -0.000000   0.050966  -0.000000  -0.127986   0.218003
   47  H  2  Z   -0.000000   0.014763  -0.000000   0.138348  -0.140832
   48  H  2  X    0.005633   0.000000  -0.032240   0.000000  -0.000000
   49  H  2  Y   -0.000000  -0.026950  -0.000000  -0.087674   0.074179
   50  H  2  Z   -0.000000   0.013442  -0.000000   0.072327  -0.048341
   51  H  2  X   -0.066179   0.000000   0.126464   0.000000  -0.000000
   52  H  2  Y   -0.000000  -0.059561  -0.000000  -0.041759   0.004184
   53  H  2  Z   -0.000000  -0.069975  -0.000000  -0.031674  -0.043938
   54  H  3  S   -0.000000   0.017412  -0.000000  -0.218575  -0.260817
   55  H  3  S   -0.000000  -0.115242  -0.000000  -0.080955  -0.018219
   56  H  3  S   -0.000000   0.026076  -0.000000   0.024072  -0.017753
   57  H  3  X    0.029978   0.000000   0.027507   0.000000  -0.000000
   58  H  3  Y   -0.000000  -0.050966  -0.000000   0.127986   0.218003
   59  H  3  Z   -0.000000   0.014763  -0.000000   0.138348   0.140832
   60  H  3  X    0.005633   0.000000   0.032240   0.000000  -0.000000
   61  H  3  Y   -0.000000   0.026950  -0.000000   0.087674   0.074179
   62  H  3  Z   -0.000000   0.013442  -0.000000   0.072327   0.048341
   63  H  3  X   -0.066179   0.000000  -0.126464   0.000000  -0.000000
   64  H  3  Y   -0.000000   0.059561  -0.000000   0.041759   0.004184
   65  H  3  Z   -0.000000  -0.069975  -0.000000  -0.031674   0.043938

                     61         62         63         64         65
                   17.2014    17.3195    17.5052    19.3309    62.9334
                     A          A          A          A          A   
    1  O  1  S   -0.000000  -0.052274  -0.000000   0.800195  -2.209149
    2  O  1  S   -0.000000   0.195898  -0.000000  -3.670502   1.614817
    3  O  1  X   -3.456280  -0.000000   0.000000   0.000000  -0.000000
    4  O  1  Y   -0.000000  -0.000000  -3.452648   0.000000  -0.000000
    5  O  1  Z   -0.000000  -3.455987  -0.000000  -0.285454  -0.003669
    6  O  1  S   -0.000000  -0.994893  -0.000000  16.650410   5.264282
    7  O  1  X   12.786105  -0.000000  -0.000000   0.000000  -0.000000
    8  O  1  Y    0.000000   0.000000  12.918641   0.000000  -0.000000
    9  O  1  Z   -0.000000  12.862653  -0.000000   1.126470   0.016780
   10  O  1  S   -0.000000   0.617202  -0.000000   4.695954   0.141024
   11  O  1  X   -0.781259  -0.000000  -0.000000   0.000000  -0.000000
   12  O  1  Y   -0.000000  -0.000000  -0.845288   0.000000  -0.000000
   13  O  1  Z   -0.000000  -0.431166  -0.000000  -0.675329  -0.031601
   14  O  1 XX   -0.000000   0.161282  -0.000000  -3.452440  -1.199711
   15  O  1 YY   -0.000000   0.289711  -0.000000  -3.321754  -1.196519
   16  O  1 ZZ   -0.000000   0.153307  -0.000000  -3.370625  -1.197662
[...]
 GROUP =  2  ITER =  2 CMAX =  0.01555427633829
 GROUP =  2  ITER =  3 CMAX =  0.00238091618191
 GROUP =  2  ITER =  4 CMAX =  0.00001028701624

 ENERGY AND DIFF OF MACROITER    4 =    -76.09750742     -0.00026651

 VB-ORBITAL OPTIMIZATION OF GROUP  2 ...
 GROUP =  2  ITER =  1 CMAX =  0.00172513704720
 GROUP =  2  ITER =  2 CMAX =  0.00419176387763
 GROUP =  2  ITER =  3 CMAX =  0.00049773306437

 ENERGY AND DIFF OF MACROITER    5 =    -76.09759857     -0.00009116

 VB-ORBITAL OPTIMIZATION OF GROUP  2 ...
 GROUP =  2  ITER =  1 CMAX =  0.00073073507727

 ENERGY AND DIFF OF MACROITER    6 =    -76.09763480     -0.00003622

 VB-ORBITAL OPTIMIZATION OF GROUP  2 ...
 GROUP =  2  ITER =  1 CMAX =  0.00091091528431

 ENERGY AND DIFF OF MACROITER    7 =    -76.09764987     -0.00001507

 VB-ORBITAL OPTIMIZATION OF GROUP  2 ...
 GROUP =  2  ITER =  1 CMAX =  0.00075786648822

 ENERGY AND DIFF OF MACROITER    8 =    -76.09765650     -0.00000663

 VB-ORBITAL OPTIMIZATION OF GROUP  2 ...
 GROUP =  2  ITER =  1 CMAX =  0.00067837407827

 ENERGY AND DIFF OF MACROITER    9 =    -76.09765966     -0.00000315

 VB-ORBITAL OPTIMIZATION OF GROUP  2 ...
 GROUP =  2  ITER =  1 CMAX =  0.00056606165316

 ENERGY AND DIFF OF MACROITER   10 =    -76.09766115     -0.00000149

 VB-ORBITAL OPTIMIZATION OF GROUP  2 ...
 GROUP =  2  ITER =  1 CMAX =  0.00050027793162

 ENERGY AND DIFF OF MACROITER   11 =    -76.09766190     -0.00000076

 VB-ORBITAL OPTIMIZATION OF GROUP  2 ...
 GROUP =  2  ITER =  1 CMAX =  0.00044473894339


 OVERLAP MATRIX OF VB ORBITALS FOR GROUP   2

        1      2      3      4
 ===============================
   1 1.0000
   2 0.8144 1.0000
   3 0.1814 0.0695 1.0000
   4 0.0695-0.0291 0.8144 1.0000

 ENERGY AND DIFF OF MACROITER   12 =    -76.09766229     -0.00000038


 MULLIKEN CHARGES ON ATOMS
 -------------------------
  ATOM             CHARGE 

    1            -0.47270
    2             0.23635
    3             0.23635

 -------------------------


 ORBITALS OF EACH ELECTRON GROUP IN AO BASIS: ORBITAL(GROUP)
 ===========================================================================
    Orbital#             1         2         3         4         5         6
      Group#             1         1         1         2         2         2
 ---------------------------------------------------------------------------
  AO# LABELS
   1  1  O     s  -0.55915   0.06008   0.00000  -0.04548  -0.01097  -0.04548
   2  1  O     s  -0.48908   0.15734   0.00000  -0.08573  -0.01706  -0.08573
   3  1  O     x   0.00000   0.00000   0.29142  -0.00000   0.00000  -0.00000
   4  1  O     y  -0.00000   0.00000   0.00000  -0.21710  -0.08217   0.21710
   5  1  O     z  -0.01415   0.13430  -0.00000   0.22715   0.08150   0.22715
   6  1  O     s   0.04924  -0.54800   0.00001   0.29486  -0.01865   0.29486
   7  1  O     x   0.00000   0.00000   0.43146  -0.00000   0.00000  -0.00000
   8  1  O     y  -0.00000   0.00000   0.00000  -0.35356  -0.09263   0.35356
   9  1  O     z  -0.00897   0.18976  -0.00000   0.36755   0.09365   0.36755
  10  1  O     s   0.05349  -0.54146   0.00001   0.18650   0.03210   0.18650
  11  1  O     x   0.00000   0.00000   0.42301   0.00000  -0.00000   0.00000
  12  1  O     y  -0.00000   0.00000   0.00000  -0.18776  -0.12036   0.18776
  13  1  O     z  -0.02025   0.23379  -0.00000   0.23607   0.18903   0.23607
  14  1  O    xx  -0.00196   0.00949  -0.00000  -0.00743   0.00031  -0.00743
  15  1  O    yy  -0.00218   0.01027  -0.00000  -0.00260  -0.00151  -0.00260
  16  1  O    zz  -0.00215   0.01059  -0.00000  -0.00247  -0.00125  -0.00247
  17  1  O    xy   0.00000  -0.00000  -0.00000   0.00000  -0.00000  -0.00000
  18  1  O    xz   0.00000   0.00000   0.00082  -0.00000   0.00000  -0.00000
  19  1  O    yz  -0.00000   0.00000   0.00000  -0.00587   0.00141   0.00587
  20  1  O    xx  -0.00520   0.03156  -0.00000  -0.03295  -0.00142  -0.03295
  21  1  O    yy  -0.00427   0.02517  -0.00000  -0.00669  -0.00224  -0.00669
  22  1  O    zz  -0.00560   0.03949  -0.00000   0.00180   0.00316   0.00180
  23  1  O    xy   0.00000  -0.00000  -0.00000   0.00000  -0.00000  -0.00000
  24  1  O    xz   0.00000   0.00000   0.01452  -0.00000   0.00000  -0.00000
  25  1  O    yz  -0.00000   0.00000   0.00000  -0.03367  -0.00146   0.03367
  26  1  O    xx  -0.00609   0.05122  -0.00000  -0.01735  -0.02194  -0.01735
  27  1  O    yy  -0.00778   0.07103  -0.00000  -0.00412  -0.00793  -0.00412
  28  1  O    zz  -0.00827   0.07672  -0.00000   0.00754   0.00254   0.00754
  29  1  O    xy   0.00000  -0.00000  -0.00000  -0.00000   0.00000   0.00000
  30  1  O    xz   0.00000   0.00000   0.01314   0.00000  -0.00000   0.00000
  31  1  O    yz  -0.00000   0.00000   0.00000  -0.01623  -0.00766   0.01623
  32  1  O   xxx   0.00000   0.00000   0.00132   0.00000  -0.00000   0.00000
  33  1  O   yyy   0.00000   0.00000   0.00000   0.00927  -0.01975  -0.00927
  34  1  O   zzz  -0.00349   0.00389  -0.00000  -0.01199   0.01915  -0.01199
  35  1  O   xxy   0.00000  -0.00000  -0.00000   0.01287  -0.00888  -0.01287
  36  1  O   xxz  -0.00140  -0.00020   0.00000  -0.01167   0.00757  -0.01167
  37  1  O   yyx   0.00000   0.00000   0.00901   0.00000  -0.00000   0.00000
  38  1  O   yyz  -0.00150   0.00012   0.00000   0.00515   0.00532   0.00515
  39  1  O   zzx   0.00000   0.00000   0.00590   0.00000  -0.00000   0.00000
  40  1  O   zzy   0.00000   0.00000   0.00000   0.00080  -0.00468  -0.00080
  41  1  O   xyz   0.00000  -0.00000   0.00000   0.00000  -0.00000  -0.00000
  42  2  H     s   0.00138  -0.01101   0.00000   0.06064   0.31579   0.00333
  43  2  H     s   0.00234  -0.01875   0.00000  -0.04238   0.43008  -0.01889
  44  2  H     s   0.00125  -0.01112   0.00000   0.01310   0.08729  -0.01302
  45  2  H     x   0.00000   0.00000   0.00413   0.00000  -0.00000   0.00000
  46  2  H     y   0.00015  -0.00113   0.00000   0.00386   0.00565   0.00241
  47  2  H     z  -0.00029   0.00298  -0.00000  -0.00231  -0.00290   0.00152
  48  2  H     x   0.00000   0.00000   0.01617   0.00000  -0.00000  -0.00000
  49  2  H     y   0.00022  -0.00293   0.00000   0.00362   0.03051   0.00714
  50  2  H     z  -0.00072   0.00872  -0.00000  -0.00607  -0.01646   0.00928
  51  2  H     x   0.00000   0.00000   0.04010   0.00000  -0.00000   0.00000
  52  2  H     y   0.00191  -0.02054   0.00000  -0.02837   0.01618  -0.00723
  53  2  H     z  -0.00284   0.03288  -0.00000   0.02879   0.00994   0.01268
  54  3  H     s   0.00138  -0.01101   0.00000   0.00333  -0.01535   0.06064
  55  3  H     s   0.00234  -0.01875   0.00000  -0.01889  -0.06834  -0.04238
  56  3  H     s   0.00125  -0.01112   0.00000  -0.01302  -0.05653   0.01310
  57  3  H     x   0.00000   0.00000   0.00413   0.00000  -0.00000   0.00000
  58  3  H     y  -0.00015   0.00113  -0.00000  -0.00241  -0.00154  -0.00386
  59  3  H     z  -0.00029   0.00298  -0.00000   0.00152   0.00163  -0.00231
  60  3  H     x   0.00000   0.00000   0.01617   0.00000   0.00000   0.00000
  61  3  H     y  -0.00022   0.00293  -0.00000  -0.00714  -0.00022  -0.00362
  62  3  H     z  -0.00072   0.00872  -0.00000   0.00928   0.01154  -0.00607
  63  3  H     x   0.00000   0.00000   0.04010   0.00000  -0.00000   0.00000
  64  3  H     y  -0.00191   0.02054  -0.00000   0.00723   0.01900   0.02837
  65  3  H     z  -0.00284   0.03288  -0.00000   0.01268   0.02827   0.02879

 ===========================================================================
    Orbital#             7
      Group#             2
 ---------------------------------------------------------------------------
  AO# LABELS
   1  1  O     s  -0.01097
   2  1  O     s  -0.01706
   3  1  O     x   0.00000
   4  1  O     y   0.08217
   5  1  O     z   0.08150
   6  1  O     s  -0.01865
   7  1  O     x   0.00000
   8  1  O     y   0.09263
   9  1  O     z   0.09365
  10  1  O     s   0.03210
  11  1  O     x  -0.00000
  12  1  O     y   0.12036
  13  1  O     z   0.18903
  14  1  O    xx   0.00031
  15  1  O    yy  -0.00151
  16  1  O    zz  -0.00125
  17  1  O    xy   0.00000
  18  1  O    xz   0.00000
  19  1  O    yz  -0.00141
  20  1  O    xx  -0.00142
  21  1  O    yy  -0.00224
  22  1  O    zz   0.00316
  23  1  O    xy   0.00000
  24  1  O    xz   0.00000
  25  1  O    yz   0.00146
  26  1  O    xx  -0.02194
  27  1  O    yy  -0.00793
  28  1  O    zz   0.00254
  29  1  O    xy  -0.00000
  30  1  O    xz  -0.00000
  31  1  O    yz   0.00766
  32  1  O   xxx  -0.00000
  33  1  O   yyy   0.01975
  34  1  O   zzz   0.01915
  35  1  O   xxy   0.00888
  36  1  O   xxz   0.00757
  37  1  O   yyx  -0.00000
  38  1  O   yyz   0.00532
  39  1  O   zzx  -0.00000
  40  1  O   zzy   0.00468
  41  1  O   xyz   0.00000
  42  2  H     s  -0.01535
  43  2  H     s  -0.06834
  44  2  H     s  -0.05653
  45  2  H     x  -0.00000
  46  2  H     y   0.00154
  47  2  H     z   0.00163
  48  2  H     x  -0.00000
  49  2  H     y   0.00022
  50  2  H     z   0.01154
  51  2  H     x  -0.00000
  52  2  H     y  -0.01900
  53  2  H     z   0.02827
  54  3  H     s   0.31579
  55  3  H     s   0.43008
  56  3  H     s   0.08729
  57  3  H     x  -0.00000
  58  3  H     y  -0.00565
  59  3  H     z  -0.00290
  60  3  H     x  -0.00000
  61  3  H     y  -0.03051
  62  3  H     z  -0.01646
  63  3  H     x  -0.00000
  64  3  H     y  -0.01618
  65  3  H     z   0.00994


 CALCULATION OF POSITION AND EXTENT OF VB ORBITALS

 DEFAULT CENTROIDS AND EXTENTS.

 MOLECULAR GEOMETRY ABOUT CENTER OF MASS

  Atom#   ATOMIC NO.     X        Y        Z
    1         8        0.0000   0.0000  -0.0656
    2         1        0.0000  -0.7572   0.5209
    3         1        0.0000   0.7572   0.5209

 CENTROIDS OF CHARGE FOR EACH VB GROUP & DISTANCES FROM 3 ATOMS

                                                  DISTANCES FROM ATOMS
 Orbital#   Group#       X        Y        Z        1        2        3
    4         2        0.0000  -0.1775   0.1324   0.2659   0.6979   1.0122
    5         2       -0.0000  -0.5469   0.4083   0.7237   0.2386   1.3090
    6         2        0.0000   0.1775   0.1324   0.2659   1.0122   0.6979
    7         2       -0.0000   0.5469   0.4083   0.7237   1.3090   0.2386

 EXTENT OF ORBITAL MEASURED BY (<R**2>)

 Orbital#   Group#     <X**2>   <Y**2>   <Z**2>   <R**2> Sqrt<R**2>

    4         2        0.0885   0.1504   0.1540   0.3928   0.6268
    5         2        0.1455   0.2566   0.2125   0.6146   0.7840
    6         2        0.0885   0.1504   0.1540   0.3928   0.6268
    7         2        0.1455   0.2566   0.2125   0.6146   0.7840

 WORDS OF DYNAMIC MEMORY USED IN VB2000 CODE ONLY:     2524408
 NOTE THAT THIS IS IN ADDITION TO MEMORY USED BY GAMESS
 PRINTED NEAR END OF OUTPUT. ADD THE TWO AMOUNTS TO GIVE
 THE TOTAL MEMORY USED BY THE JOB

 STATISTICS OF CPU TIMES (SECONDS)
 CPU TIME FOR INITIALIZATION        0.550
 CPU TIME FOR MACROITERATION       13.850
 TOTAL CPU TIME                    14.400

 STEP CPU TIME =    14.46 TOTAL CPU TIME =       14.7 (    0.2 MIN)
 TOTAL WALL CLOCK TIME=       14.8 SECONDS, CPU UTILIZATION IS  99.46%

 **************************************************************
 *                                                            *
 *                  ENDING GAMESS(US) VB2000                  *
 *                                                            *
 *  Properties for individual molecular orbitals are correct  *
 *   only for VB modified orbitals in a Hartree-Fock group.   *
 *                                                            *
 **************************************************************

     ----------------------------------
     PROPERTIES FOR THE VB WAVEFUNCTION
     ----------------------------------

          -----------------
          ENERGY COMPONENTS
          -----------------

         WAVEFUNCTION NORMALIZATION =       1.0000000000

                ONE ELECTRON ENERGY =    -123.0506874601
                TWO ELECTRON ENERGY =      37.7638105540
           NUCLEAR REPULSION ENERGY =       9.1892146195
                                      ------------------
                       TOTAL ENERGY =     -76.0976622865

 ELECTRON-ELECTRON POTENTIAL ENERGY =      37.7638105540
  NUCLEUS-ELECTRON POTENTIAL ENERGY =    -199.1765536544
   NUCLEUS-NUCLEUS POTENTIAL ENERGY =       9.1892146195
                                      ------------------
             TOTAL POTENTIAL ENERGY =    -152.2235284808
               TOTAL KINETIC ENERGY =      76.1258661943
                 VIRIAL RATIO (V/T) =       1.9996295095

          ---------------------------------------
          MULLIKEN AND LOWDIN POPULATION ANALYSES
          ---------------------------------------

     ATOMIC MULLIKEN POPULATION IN EACH MOLECULAR ORBITAL

                      1          2          3          4          5

                  2.000000   2.000000   2.000000   2.000000   2.000000

    1             2.001471   1.846113   1.892316   1.753410   1.889959
    2            -0.000736   0.076943   0.053842   0.123295   0.055020
    3            -0.000736   0.076943   0.053842   0.123295   0.055020

               ----- POPULATIONS IN EACH AO -----
                             MULLIKEN      LOWDIN
              1  O  1  S      1.08318     1.01592
              2  O  1  S      0.91393     0.90331
              3  O  1  X      0.38023     0.36911
              4  O  1  Y      0.25788     0.24283
              5  O  1  Z      0.30935     0.29511
              6  O  1  S      1.00037     0.32917
              7  O  1  X      0.79210     0.43595
              8  O  1  Y      0.58947     0.32318
              9  O  1  Z      0.67120     0.37458
             10  O  1  S      1.01579     0.27279
             11  O  1  X      0.69802     0.43733
             12  O  1  Y      0.39703     0.35934
             13  O  1  Z      0.63128     0.42314
             14  O  1 XX     -0.00786     0.07538
             15  O  1 YY     -0.00784     0.07719
             16  O  1 ZZ     -0.00790     0.07562
             17  O  1 XY      0.00000     0.00000
             18  O  1 XZ      0.00002     0.00004
             19  O  1 YZ      0.00023     0.00029
             20  O  1 XX     -0.05191     0.17941
             21  O  1 YY     -0.03621     0.18814
             22  O  1 ZZ     -0.04636     0.18021
             23  O  1 XY      0.00000     0.00000
             24  O  1 XZ      0.00095     0.00055
             25  O  1 YZ      0.00800     0.01012
             26  O  1 XX     -0.05353     0.03824
             27  O  1 YY     -0.06522     0.05803
             28  O  1 ZZ     -0.05539     0.04821
             29  O  1 XY      0.00000     0.00000
             30  O  1 XZ      0.00144     0.00006
             31  O  1 YZ      0.00933     0.03157
             32  O  1 XXX     0.00205     0.25187
             33  O  1 YYY     0.01138     0.19735
             34  O  1 ZZZ     0.00913     0.21625
             35  O  1 XXY    -0.00347     0.07522
             36  O  1 XXZ    -0.00304     0.09269
             37  O  1 YYX     0.01062     0.11515
             38  O  1 YYZ     0.00821     0.12187
             39  O  1 ZZX     0.00690     0.11481
             40  O  1 ZZY     0.00336     0.10335
             41  O  1 XYZ     0.00000     0.00000
             42  H  2  S      0.27030     0.23185
             43  H  2  S      0.32174     0.27145
             44  H  2  S      0.04825     0.08808
             45  H  2  X      0.00081     0.00119
             46  H  2  Y      0.00150     0.00226
             47  H  2  Z      0.00107     0.00201
             48  H  2  X      0.01143     0.03397
             49  H  2  Y      0.01144     0.03298
             50  H  2  Z      0.01239     0.03650
             51  H  2  X      0.04161     0.10240
             52  H  2  Y      0.00010     0.08058
             53  H  2  Z      0.04302     0.10005
             54  H  3  S      0.27030     0.23185
             55  H  3  S      0.32174     0.27145
             56  H  3  S      0.04825     0.08808
             57  H  3  X      0.00081     0.00119
             58  H  3  Y      0.00150     0.00226
             59  H  3  Z      0.00107     0.00201
             60  H  3  X      0.01143     0.03397
             61  H  3  Y      0.01144     0.03298
             62  H  3  Z      0.01239     0.03650
             63  H  3  X      0.04161     0.10240
             64  H  3  Y      0.00010     0.08058
             65  H  3  Z      0.04302     0.10005

          ----- MULLIKEN ATOMIC OVERLAP POPULATIONS -----
          (OFF-DIAGONAL ELEMENTS NEED TO BE MULTIPLIED BY 2)

             1           2           3

    1    7.6295106
    2    0.4215928   0.3930730
    3    0.4215928  -0.0510139   0.3930730

          TOTAL MULLIKEN AND LOWDIN ATOMIC POPULATIONS
       ATOM         MULL.POP.    CHARGE          LOW.POP.     CHARGE
    1 O             8.472696   -0.472696         8.033376   -0.033376
    2 H             0.763652    0.236348         0.983312    0.016688
    3 H             0.763652    0.236348         0.983312    0.016688

          -------------------------------
          BOND ORDER AND VALENCE ANALYSIS     BOND ORDER THRESHOLD=0.050
          -------------------------------

                   BOND                       BOND                       BOND
  ATOM PAIR DIST  ORDER      ATOM PAIR DIST  ORDER      ATOM PAIR DIST  ORDER
    1   2  0.958  1.050        1   3  0.958  1.050

                       TOTAL       BONDED        FREE
      ATOM            VALENCE     VALENCE     VALENCE
    1 O                 2.185       2.100       0.085
    2 H                 1.084       1.048       0.035
    3 H                 1.084       1.048       0.035

          ---------------------
          ELECTROSTATIC MOMENTS
          ---------------------

 POINT   1           X           Y           Z (BOHR)    CHARGE
                 0.000000    0.000000    0.124046        0.00 (A.U.)
         DX          DY          DZ         /D/  (DEBYE)
     0.000000   -0.000000    1.796930    1.796930
 ...... END OF PROPERTY EVALUATION ......
 STEP CPU TIME =     0.01 TOTAL CPU TIME =       14.7 (    0.2 MIN)
 TOTAL WALL CLOCK TIME=       14.8 SECONDS, CPU UTILIZATION IS  99.53%
               580000  WORDS OF DYNAMIC MEMORY USED
 EXECUTION OF GAMESS TERMINATED NORMALLY Mon Oct 14 07:27:21 2013
 DDI: 263624 bytes (0.3 MB / 0 MWords) used by master data server.

 ----------------------------------------
 CPU timing information for all processes
 ========================================
 0: 14.420 + 0.288 = 14.708
 ----------------------------------------
 ddikick.x: exited gracefully.
unset echo
----- accounting info -----
Files used on the master node titch-64 were:
-rw-r--r-- 1 brian brian     1500 Oct 14 07:27 /scr/brian/exam-vb05.F05
-rw-rw-r-- 1 brian brian 12601120 Oct 14 07:27 /scr/brian/exam-vb05.F08
-rw-rw-r-- 1 brian brian  1603280 Oct 14 07:27 /scr/brian/exam-vb05.F10
-rw-rw-r-- 1 brian brian       88 Oct 14 07:27 /scr/brian/exam-vb05.TEMP02
-rw-rw-r-- 1 brian brian       88 Oct 14 07:27 /scr/brian/exam-vb05.TEMP03
-rw-rw-r-- 1 brian brian      448 Oct 14 07:27 /scr/brian/exam-vb05.TEMP04
-rw-rw-r-- 1 brian brian    16399 Oct 14 07:27 /scr/brian/exam-vb05.TEMP-MOD
-rw-rw-r-- 1 brian brian     1215 Oct 14 07:27 /scr/brian/exam-vb05.V80
-rw-rw-r-- 1 brian brian        0 Oct 14 07:27 /scr/brian/exam-vb05.V82
-rw-rw-r-- 1 brian brian        0 Oct 14 07:27 /scr/brian/exam-vb05.V83
-rw-rw-r-- 1 brian brian    34828 Oct 14 07:27 /scr/brian/exam-vb05.V84
-rw-rw-r-- 1 brian brian  2277144 Oct 14 07:27 /scr/brian/exam-vb05.V85
-rw-rw-r-- 1 brian brian   196592 Oct 14 07:27 /scr/brian/exam-vb05.V86
-rw-rw-r-- 1 brian brian   688072 Oct 14 07:27 /scr/brian/exam-vb05.V87
-rw-rw-r-- 1 brian brian      736 Oct 14 07:27 /scr/brian/exam-vb05.V88
-rw-rw-r-- 1 brian brian        0 Oct 14 07:27 /scr/brian/exam-vb05.V89
ls: No match.
ls: No match.
ls: No match.
Mon Oct 14 07:27:24 EST 2013
0.096u 0.016s 0:17.96 0.5%	0+0k 8+16io 0pf+0w
