----- GAMESS execution script 'rungms' -----
This job is running on host titch-64
under operating system Linux at Mon Oct 14 07:28:37 EST 2013
Available scratch disk space (Kbyte units) at beginning of the job is
Filesystem     1K-blocks      Used Available Use% Mounted on
/dev/sda1      945022356 138267604 758750400  16% /
GAMESS temporary binary files will be written to /scr/brian
GAMESS supplementary output files will be written to /home/brian/scr
Copying input file exam-vb11.inp to your run's scratch directory...
cp tests/exam-vb11.inp /scr/brian/exam-vb11.F05
unset echo
/home/brian/qchem/gamess/ddikick.x /home/brian/qchem/gamess/gamess.01.x exam-vb11 -ddi 1 1 titch-64 -scr /scr/brian

 Distributed Data Interface kickoff program.
 Initiating 1 compute processes on 1 nodes to run the following command:
 /home/brian/qchem/gamess/gamess.01.x exam-vb11 

          ******************************************************
          *         GAMESS VERSION =  1 MAY 2013 (R1)          *
          *             FROM IOWA STATE UNIVERSITY             *
          * M.W.SCHMIDT, K.K.BALDRIDGE, J.A.BOATZ, S.T.ELBERT, *
          *   M.S.GORDON, J.H.JENSEN, S.KOSEKI, N.MATSUNAGA,   *
          *          K.A.NGUYEN, S.J.SU, T.L.WINDUS,           *
          *       TOGETHER WITH M.DUPUIS, J.A.MONTGOMERY       *
          *         J.COMPUT.CHEM.  14, 1347-1363(1993)        *
          **************** 64 BIT LINUX VERSION ****************

  SINCE 1993, STUDENTS AND POSTDOCS WORKING AT IOWA STATE UNIVERSITY
  AND ALSO IN THEIR VARIOUS JOBS AFTER LEAVING ISU HAVE MADE IMPORTANT
  CONTRIBUTIONS TO THE CODE:
     IVANA ADAMOVIC, CHRISTINE AIKENS, YURI ALEXEEV, POOJA ARORA,
     ANDREY ASADCHEV, ROB BELL, PRADIPTA BANDYOPADHYAY, JONATHAN BENTZ,
     BRETT BODE, GALINA CHABAN, WEI CHEN, CHEOL HO CHOI, PAUL DAY,
     ALBERT DEFUSCO, TIM DUDLEY, DMITRI FEDOROV, GRAHAM FLETCHER,
     MARK FREITAG, KURT GLAESEMANN, DAN KEMP, GRANT MERRILL,
     NORIYUKI MINEZAWA, JONATHAN MULLIN, TAKESHI NAGATA,
     SEAN NEDD, HEATHER NETZLOFF, BOSILJKA NJEGIC, RYAN OLSON, MIKE PAK,
     JIM SHOEMAKER, LYUDMILA SLIPCHENKO, SAROM SOK, JIE SONG,
     TETSUYA TAKETSUGU, SIMON WEBB, SOOHAENG YOO, FEDERICO ZAHARIEV

  ADDITIONAL CODE HAS BEEN PROVIDED BY COLLABORATORS IN OTHER GROUPS:
     IOWA STATE UNIVERSITY:
          JOE IVANIC, LAIMUTIS BYTAUTAS, KLAUS RUEDENBERG
     UNIVERSITY OF TOKYO: KIMIHIKO HIRAO, TAKAHITO NAKAJIMA,
          TAKAO TSUNEDA, MUNEAKI KAMIYA, SUSUMU YANAGISAWA,
          KIYOSHI YAGI, MAHITO CHIBA, SEIKEN TOKURA, NAOAKI KAWAKAMI
     UNIVERSITY OF AARHUS: FRANK JENSEN
     UNIVERSITY OF IOWA: VISVALDAS KAIRYS, HUI LI
     NATIONAL INST. OF STANDARDS AND TECHNOLOGY: WALT STEVENS, DAVID GARMER
     UNIVERSITY OF PISA: BENEDETTA MENNUCCI, JACOPO TOMASI
     UNIVERSITY OF MEMPHIS: HENRY KURTZ, PRAKASHAN KORAMBATH
     UNIVERSITY OF ALBERTA: TOBY ZENG, MARIUSZ KLOBUKOWSKI
     UNIVERSITY OF NEW ENGLAND: MARK SPACKMAN
     MIE UNIVERSITY: HIROAKI UMEDA
     MICHIGAN STATE UNIVERSITY:
          KAROL KOWALSKI, MARTA WLOCH, JEFFREY GOUR, JESSE LUTZ,
          WEI LI, PIOTR PIECUCH
     UNIVERSITY OF SILESIA: MONIKA MUSIAL, STANISLAW KUCHARSKI
     FACULTES UNIVERSITAIRES NOTRE-DAME DE LA PAIX:
          OLIVIER QUINET, BENOIT CHAMPAGNE
     UNIVERSITY OF CALIFORNIA - SANTA BARBARA: BERNARD KIRTMAN
     INSTITUTE FOR MOLECULAR SCIENCE:
          KAZUYA ISHIMURA, MICHIO KATOUDA, AND SHIGERU NAGASE
     UNIVERSITY OF NOTRE DAME: DAN CHIPMAN
     KYUSHU UNIVERSITY:
          HARUYUKI NAKANO,
          FENG LONG GU, JACEK KORCHOWIEC, MARCIN MAKOWSKI, AND YURIKO AOKI,
          HIROTOSHI MORI AND EISAKU MIYOSHI
     PENNSYLVANIA STATE UNIVERSITY:
          TZVETELIN IORDANOV, CHET SWALINA, JONATHAN SKONE,
          SHARON HAMMES-SCHIFFER
     WASEDA UNIVERSITY:
          MASATO KOBAYASHI, TOMOKO AKAMA, TSUGUKI TOUMA,
          TAKESHI YOSHIKAWA, YASUHIRO IKABATA, HIROMI NAKAI
     NANJING UNIVERSITY: SHUHUA LI
     UNIVERSITY OF NEBRASKA:
          PEIFENG SU, DEJUN SI, NANDUN THELLAMUREGE, YALI WANG, HUI LI
     UNIVERSITY OF ZURICH:
          ROBERTO PEVERATI, KIM BALDRIDGE
     N. COPERNICUS UNIVERSITY AND JACKSON STATE UNIVERSITY:
          MARIA BARYSZ

 EXECUTION OF GAMESS BEGUN Mon Oct 14 07:28:37 2013

            ECHO OF THE FIRST FEW INPUT CARDS -
 INPUT CARD>! GAMESS/VB2000 Test 11.                                                        
 INPUT CARD>! This run tests the keyword "SPHER" that gives VB results over                 
 INPUT CARD>! spherical harmonics.                                                          
 INPUT CARD>!                                                                               
 INPUT CARD>! Note that the GAMESS data includes ISPHER=1. This does NOT ensure that        
 INPUT CARD>! spherical harmonics are used during the VB run. It merely ensures that        
 INPUT CARD>! they are used for the GAMESS HF calculation. Integrals over cartesians        
 INPUT CARD>! are then passed to VB2000 and the VB run would be cartesian unless the        
 INPUT CARD>! "SPHER" keyword was present. ISPHER=1 has to be used for this basis and       
 INPUT CARD>! similar basis sets.                                                           
 INPUT CARD>!                                                                               
 INPUT CARD>! The final RHF energy is:=                                                     
 INPUT CARD>!                                                                               
 INPUT CARD>!  RHF ENERGY IS -76.02403861 AFTER  10 ITERATIONS                              
 INPUT CARD>!                                                                               
 INPUT CARD>! The VB final energy is:-                                                      
 INPUT CARD>!                                                                               
 INPUT CARD>! ENERGY AND DIFF OF MACROITER   18 =    -76.06688842      0.00000000           
 INPUT CARD>!                                                                               
 INPUT CARD>! and the VB dipole moments 1.8664 (cf 1.8669 for cartesians). The              
 INPUT CARD>! VB energy with cartesians is -76.06716534.                                    
 INPUT CARD>!                                                                               
 INPUT CARD> $CONTRL SCFTYP=RHF COORD=UNIQUE VBTYP=VB2000                                   
 INPUT CARD>   ISPHER=1 $END                                                                
 INPUT CARD> $SYSTEM TIMLIM=20 MEMORY=2000000 $END                                          
 INPUT CARD> $BASIS GBASIS=CCD $END                                                         
 INPUT CARD> $GUESS  GUESS=HUCKEL $END                                                      
 INPUT CARD> $DATA                                                                          
 INPUT CARD>Water VB(4) with SPHER test for spherical harmonics                             
 INPUT CARD>C1                                                                              
 INPUT CARD>OXYGEN    8.0   .000000   .000000   .000000                                     
 INPUT CARD>HYDROGEN  1.0   .801842   .000000   .555582                                     
 INPUT CARD>HYDROGEN  1.0  -.801842   .000000   .555582                                     
 INPUT CARD> $END                                                                           
 INPUT CARD> $VB2000                                                                        
 INPUT CARD>                                                                                
 INPUT CARD>#! VB(4)/cc-pVDZ SPHER PRINTALL                                                 
 INPUT CARD>                                                                                
 INPUT CARD>TEST H2O VB(4)                                                                  
 INPUT CARD>                                                                                
 INPUT CARD>0 1                                                                             
 INPUT CARD>8   .000000   .000000   .000000                                                 
 INPUT CARD>1   .801842   .000000   .555582                                                 
 INPUT CARD>1  -.801842   .000000   .555582                                                 
 INPUT CARD>                                                                                
 INPUT CARD>                                                                                
 INPUT CARD> $02VBSCF                                                                       
 INPUT CARD> 0.0001,100                                                                     
 INPUT CARD>                                                                                
 INPUT CARD> $MACROITER                                                                     
    2000000 WORDS OF MEMORY AVAILABLE

     BASIS OPTIONS
     -------------
     GBASIS=CCD          IGAUSS=       0      POLAR=NONE    
     NDFUNC=       0     NFFUNC=       0     DIFFSP=       F
     NPFUNC=       0      DIFFS=       F     BASNAM=        


     RUN TITLE
     ---------
 Water VB(4) with SPHER test for spherical harmonics                             

 THE POINT GROUP OF THE MOLECULE IS C1      
 THE ORDER OF THE PRINCIPAL AXIS IS     0

 ATOM      ATOMIC                      COORDINATES (BOHR)
           CHARGE         X                   Y                   Z
 OXYGEN      8.0     0.0000000000        0.0000000000        0.0000000000
 HYDROGEN    1.0     1.5152616654        0.0000000000        1.0498977437
 HYDROGEN    1.0    -1.5152616654        0.0000000000        1.0498977437

          INTERNUCLEAR DISTANCES (ANGS.)
          ------------------------------

                1 OXYG       2 HYDR       3 HYDR  

   1 OXYG    0.0000000    0.9755111 *  0.9755111 *
   2 HYDR    0.9755111 *  0.0000000    1.6036840 *
   3 HYDR    0.9755111 *  1.6036840 *  0.0000000  

  * ... LESS THAN  3.000


     ATOMIC BASIS SET
     ----------------
 THE CONTRACTED PRIMITIVE FUNCTIONS HAVE BEEN UNNORMALIZED
 THE CONTRACTED BASIS FUNCTIONS ARE NOW NORMALIZED TO UNITY

  SHELL TYPE  PRIMITIVE        EXPONENT          CONTRACTION COEFFICIENT(S)

 OXYGEN    

      1   S       1         11720.0000000    0.000709645947
      1   S       2          1759.0000000    0.005467272292
      1   S       3           400.8000000    0.027823118610
      1   S       4           113.7000000    0.104747739711
      1   S       5            37.0300000    0.282920846357
      1   S       6            13.2700000    0.448495238698
      1   S       7             5.0250000    0.270816885213
      1   S       8             1.0130000    0.015450291607

      2   S       9         11720.0000000   -0.000314443412
      2   S      10          1759.0000000   -0.002482137681
      2   S      11           400.8000000   -0.012316355382
      2   S      12           113.7000000   -0.050538917344
      2   S      13            37.0300000   -0.139384903316
      2   S      14            13.2700000   -0.325077494818
      2   S      15             5.0250000   -0.229848307588
      2   S      16             1.0130000    1.095379346788

      3   S      17             0.3023000    1.000000000000

      4   P      18            17.7000000    0.062679166282
      4   P      19             3.8540000    0.333536565879
      4   P      20             1.0460000    0.741239641640

      5   P      21             0.2753000    1.000000000000

      6   D      22             1.1850000    1.000000000000

 HYDROGEN  

      7   S      23            13.0100000    0.033498726390
      7   S      24             1.9620000    0.234800801174
      7   S      25             0.4446000    0.813682957883

      8   S      26             0.1220000    1.000000000000

      9   P      27             0.7270000    1.000000000000

 HYDROGEN  

     10   S      28            13.0100000    0.033498726390
     10   S      29             1.9620000    0.234800801174
     10   S      30             0.4446000    0.813682957883

     11   S      31             0.1220000    1.000000000000

     12   P      32             0.7270000    1.000000000000

 TOTAL NUMBER OF BASIS SET SHELLS             =   12
 NUMBER OF CARTESIAN GAUSSIAN BASIS FUNCTIONS =   25
 NOTE: THIS RUN WILL RESTRICT THE MO VARIATION SPACE TO SPHERICAL HARMONICS.
 THE NUMBER OF ORBITALS KEPT IN THE VARIATIONAL SPACE WILL BE PRINTED LATER.
 NUMBER OF ELECTRONS                          =   10
 CHARGE OF MOLECULE                           =    0
 SPIN MULTIPLICITY                            =    1
 NUMBER OF OCCUPIED ORBITALS (ALPHA)          =    5
 NUMBER OF OCCUPIED ORBITALS (BETA )          =    5
 TOTAL NUMBER OF ATOMS                        =    3
 THE NUCLEAR REPULSION ENERGY IS        9.0093603723

     $CONTRL OPTIONS
     ---------------
 SCFTYP=RHF          RUNTYP=ENERGY       EXETYP=RUN     
 MPLEVL=       0     CITYP =NONE         CCTYP =NONE         VBTYP =VB2000  
 DFTTYP=NONE         TDDFT =NONE    
 MULT  =       1     ICHARG=       0     NZVAR =       0     COORD =UNIQUE  
 PP    =NONE         RELWFN=NONE         LOCAL =NONE         NUMGRD=       F
 ISPHER=       1     NOSYM =       0     MAXIT =      30     UNITS =ANGS    
 PLTORB=       F     MOLPLT=       F     AIMPAC=       F     FRIEND=        
 NPRINT=       7     IREST =       0     GEOM  =INPUT   
 NORMF =       0     NORMP =       0     ITOL  =      20     ICUT  =       9
 INTTYP=BEST         GRDTYP=BEST         QMTTOL= 1.0E-06

     $SYSTEM OPTIONS
     ---------------
  REPLICATED MEMORY=     2000000 WORDS (ON EVERY NODE).
 DISTRIBUTED MEMDDI=           0 MILLION WORDS IN AGGREGATE,
 MEMDDI DISTRIBUTED OVER   1 PROCESSORS IS           0 WORDS/PROCESSOR.
 TOTAL MEMORY REQUESTED ON EACH PROCESSOR=     2000000 WORDS.
 TIMLIM=          20.00 MINUTES, OR       0.0 DAYS.
 PARALL= F  BALTYP=  DLB     KDIAG=    0  COREFL= F
 MXSEQ2=     300 MXSEQ3=     150

          ----------------
          PROPERTIES INPUT
          ----------------

     MOMENTS            FIELD           POTENTIAL          DENSITY
 IEMOM =       1   IEFLD =       0   IEPOT =       0   IEDEN =       0
 WHERE =COMASS     WHERE =NUCLEI     WHERE =NUCLEI     WHERE =NUCLEI  
 OUTPUT=BOTH       OUTPUT=BOTH       OUTPUT=BOTH       OUTPUT=BOTH    
 IEMINT=       0   IEFINT=       0                     IEDINT=       0
                                                       MORB  =       0
          EXTRAPOLATION IN EFFECT
          SOSCF IN EFFECT
 ORBITAL PRINTING OPTION: NPREO=     1    25     2     1

     -------------------------------
     INTEGRAL TRANSFORMATION OPTIONS
     -------------------------------
     NWORD  =            0
     CUTOFF = 1.0E-09     MPTRAN =       0
     DIRTRF =       F     AOINTS =DUP     

          ----------------------
          INTEGRAL INPUT OPTIONS
          ----------------------
 NOPK  =       1 NORDER=       0 SCHWRZ=       F

     ------------------------------------------
     THE POINT GROUP IS C1 , NAXIS= 0, ORDER= 1
     ------------------------------------------

 -- VARIATIONAL SPACE WILL BE RESTRICTED TO PURE SPHERICAL HARMONICS ONLY --
 AFTER EXCLUDING CONTAMINANT COMBINATIONS FROM THE CARTESIAN GAUSSIAN BASIS
 SET, THE NUMBER OF SPHERICAL HARMONICS KEPT IN THE VARIATION SPACE IS   24

     DIMENSIONS OF THE SYMMETRY SUBSPACES ARE
 A   =   24

 ..... DONE SETTING UP THE RUN .....
 STEP CPU TIME =     0.00 TOTAL CPU TIME =        0.0 (    0.0 MIN)
 TOTAL WALL CLOCK TIME=        0.0 SECONDS, CPU UTILIZATION IS   0.00%

          ********************
          1 ELECTRON INTEGRALS
          ********************
 ...... END OF ONE-ELECTRON INTEGRALS ......
 STEP CPU TIME =     0.00 TOTAL CPU TIME =        0.0 (    0.0 MIN)
 TOTAL WALL CLOCK TIME=        0.0 SECONDS, CPU UTILIZATION IS   0.00%

          -------------
          GUESS OPTIONS
          -------------
          GUESS =HUCKEL            NORB  =       0          NORDER=       0
          MIX   =       F          PRTMO =       F          PUNMO =       F
          TOLZ  = 1.0E-08          TOLE  = 1.0E-05
          SYMDEN=       F          PURIFY=       F

 INITIAL GUESS ORBITALS GENERATED BY HUCKEL   ROUTINE.
 HUCKEL GUESS REQUIRES      6979 WORDS.

 STATISTICS FOR GENERATION OF SYMMETRY ORBITAL -Q- MATRIX
 NUMBER OF CARTESIAN ATOMIC ORBITALS=         25
 NUMBER OF SPHERICAL CONTAMINANTS DROPPED=     1
 NUMBER OF LINEARLY DEPENDENT MOS DROPPED=     0
 TOTAL NUMBER OF MOS IN VARIATION SPACE=      24

 SYMMETRIES FOR INITIAL GUESS ORBITALS FOLLOW.   BOTH SET(S).
     5 ORBITALS ARE OCCUPIED (    1 CORE ORBITALS).
     2=A        3=A        4=A        5=A        6=A        7=A        8=A   
     9=A       10=A       11=A       12=A       13=A       14=A       15=A   
 ...... END OF INITIAL ORBITAL SELECTION ......
 STEP CPU TIME =     0.00 TOTAL CPU TIME =        0.0 (    0.0 MIN)
 TOTAL WALL CLOCK TIME=        0.0 SECONDS, CPU UTILIZATION IS   0.00%

                    ----------------------
                    AO INTEGRAL TECHNOLOGY
                    ----------------------
     S,P,L SHELL ROTATED AXIS INTEGRALS, REPROGRAMMED BY
        KAZUYA ISHIMURA (IMS) AND JOSE SIERRA (SYNSTAR).
     S,P,D,L SHELL ROTATED AXIS INTEGRALS PROGRAMMED BY
        KAZUYA ISHIMURA (INSTITUTE FOR MOLECULAR SCIENCE).
     S,P,D,F,G SHELL TO TOTAL QUARTET ANGULAR MOMENTUM SUM 5,
        ERIC PROGRAM BY GRAHAM FLETCHER (ELORET AND NASA ADVANCED
        SUPERCOMPUTING DIVISION, AMES RESEARCH CENTER).
     S,P,D,F,G,L SHELL GENERAL RYS QUADRATURE PROGRAMMED BY
        MICHEL DUPUIS (PACIFIC NORTHWEST NATIONAL LABORATORY).

          --------------------
          2 ELECTRON INTEGRALS
          --------------------

 THE -PK- OPTION IS OFF, THE INTEGRALS ARE NOT IN SUPERMATRIX FORM.
 STORING   15000 INTEGRALS/RECORD ON DISK, USING 12 BYTES/INTEGRAL.
 TWO ELECTRON INTEGRAL EVALUATION REQUIRES   90474 WORDS OF MEMORY.
 II,JST,KST,LST =  1  1  1  1 NREC =         1 INTLOC =    1
 II,JST,KST,LST =  2  1  1  1 NREC =         1 INTLOC =    2
 II,JST,KST,LST =  3  1  1  1 NREC =         1 INTLOC =    7
 II,JST,KST,LST =  4  1  1  1 NREC =         1 INTLOC =   22
 II,JST,KST,LST =  5  1  1  1 NREC =         1 INTLOC =   67
 II,JST,KST,LST =  6  1  1  1 NREC =         1 INTLOC =  214
 II,JST,KST,LST =  7  1  1  1 NREC =         1 INTLOC = 1189
 II,JST,KST,LST =  8  1  1  1 NREC =         1 INTLOC = 2365
 II,JST,KST,LST =  9  1  1  1 NREC =         1 INTLOC = 3802
 II,JST,KST,LST = 10  1  1  1 NREC =         1 INTLOC = 9260
 II,JST,KST,LST = 11  1  1  1 NREC =         1 INTLOC =11894
 II,JST,KST,LST = 12  1  1  1 NREC =         1 INTLOC =14964
 TOTAL NUMBER OF NONZERO TWO-ELECTRON INTEGRALS =               25620
          2 INTEGRAL RECORDS WERE STORED ON DISK FILE  8.
  ...... END OF TWO-ELECTRON INTEGRALS .....
 STEP CPU TIME =     0.02 TOTAL CPU TIME =        0.0 (    0.0 MIN)
 TOTAL WALL CLOCK TIME=        0.0 SECONDS, CPU UTILIZATION IS  66.67%

          --------------------------
                 RHF SCF CALCULATION
          --------------------------

     NUCLEAR ENERGY =         9.0093603723
     MAXIT =   30     NPUNCH=    2
     EXTRAP=T  DAMP=F  SHIFT=F  RSTRCT=F  DIIS=F  DEM=F  SOSCF=T
     DENSITY MATRIX CONV=  1.00E-05
     SOSCF WILL OPTIMIZE      95 ORBITAL ROTATIONS, SOGTOL=   0.250
     MEMORY REQUIRED FOR RHF ITERS=     35105 WORDS.

 ITER EX DEM     TOTAL ENERGY        E CHANGE  DENSITY CHANGE     ORB. GRAD
   1  0  0      -75.7780842046   -75.7780842046   0.141564894   0.000000000
          ---------------START SECOND ORDER SCF---------------
   2  1  0      -76.0107601769    -0.2326759722   0.051513874   0.043531869
   3  2  0      -76.0228151804    -0.0120550036   0.022893275   0.013064704
   4  3  0      -76.0239825159    -0.0011673355   0.005850869   0.002972003
   5  4  0      -76.0240281998    -0.0000456838   0.001599537   0.001610020
   6  5  0      -76.0240378914    -0.0000096916   0.000543319   0.000306049
   7  6  0      -76.0240385961    -0.0000007047   0.000078307   0.000036834
   8  7  0      -76.0240386060    -0.0000000098   0.000029191   0.000011497
   9  8  0      -76.0240386071    -0.0000000012   0.000003619   0.000001810
  10  9  0      -76.0240386072    -0.0000000000   0.000000753   0.000000429

          -----------------
          DENSITY CONVERGED
          -----------------
     TIME TO FORM FOCK OPERATORS=       0.0 SECONDS (       0.0 SEC/ITER)
     TIME TO SOLVE SCF EQUATIONS=       0.0 SECONDS (       0.0 SEC/ITER)

 FINAL RHF ENERGY IS      -76.0240386072 AFTER  10 ITERATIONS

          ------------
          EIGENVECTORS
          ------------

                      1          2          3          4          5
                  -20.5500    -1.3230    -0.7002    -0.5510    -0.4895
                     A          A          A          A          A   
    1  O  1  S    1.000869  -0.008144  -0.000000   0.001759   0.000000
    2  O  1  S    0.001095   0.445065  -0.000000  -0.141509   0.000000
    3  O  1  S   -0.002788   0.393262  -0.000000  -0.325939   0.000000
    4  O  1  X   -0.000000  -0.000000   0.484322  -0.000000   0.000000
    5  O  1  Y   -0.000000  -0.000000  -0.000000  -0.000000   0.630933
    6  O  1  Z    0.001648   0.070564  -0.000000   0.551316   0.000000
    7  O  1  X   -0.000000  -0.000000   0.217202  -0.000000   0.000000
    8  O  1  Y   -0.000000  -0.000000  -0.000000  -0.000000   0.497732
    9  O  1  Z   -0.000530  -0.008273  -0.000000   0.383663   0.000000
   10  O  1 XX    0.000119   0.002628  -0.000000  -0.004269   0.000000
   11  O  1 YY   -0.000092  -0.003180  -0.000000  -0.012664   0.000000
   12  O  1 ZZ   -0.000027   0.000551  -0.000000   0.016933   0.000000
   13  O  1 XY   -0.000000  -0.000000  -0.000000  -0.000000   0.000000
   14  O  1 XZ   -0.000000  -0.000000   0.025034  -0.000000   0.000000
   15  O  1 YZ   -0.000000  -0.000000  -0.000000  -0.000000   0.017323
   16  H  2  S   -0.000158   0.183005   0.327795   0.196291   0.000000
   17  H  2  S    0.000439   0.010980   0.088985   0.044136   0.000000
   18  H  2  X    0.000529  -0.037099  -0.026116  -0.029882   0.000000
   19  H  2  Y   -0.000000  -0.000000  -0.000000  -0.000000   0.029990
   20  H  2  Z    0.000417  -0.017647  -0.031016   0.009141   0.000000
   21  H  3  S   -0.000158   0.183005  -0.327795   0.196291   0.000000
   22  H  3  S    0.000439   0.010980  -0.088985   0.044136   0.000000
   23  H  3  X   -0.000529   0.037099  -0.026116   0.029882   0.000000
   24  H  3  Y   -0.000000  -0.000000  -0.000000  -0.000000   0.029990
   25  H  3  Z    0.000417  -0.017647   0.031016   0.009141   0.000000

                      6          7          8          9         10
                    0.1832     0.2530     0.7983     0.8098     1.1626
                     A          A          A          A          A   
    1  O  1  S   -0.052297  -0.000000  -0.000000  -0.057505  -0.011468
    2  O  1  S    0.076360  -0.000000  -0.000000  -0.238747   0.069401
    3  O  1  S    0.997430  -0.000000  -0.000000   0.235913   0.727470
    4  O  1  X   -0.000000   0.285460  -0.293764   0.000000  -0.000000
    5  O  1  Y   -0.000000  -0.000000  -0.000000   0.000000  -0.000000
    6  O  1  Z    0.190173  -0.000000  -0.000000  -0.279493  -0.792200
    7  O  1  X   -0.000000   0.677824  -0.418822   0.000000  -0.000000
    8  O  1  Y   -0.000000  -0.000000  -0.000000   0.000000  -0.000000
    9  O  1  Z    0.329498  -0.000000  -0.000000  -0.065029   1.222945
   10  O  1 XX    0.005130  -0.000000  -0.000000   0.097635  -0.002394
   11  O  1 YY   -0.010972  -0.000000  -0.000000  -0.085476  -0.008509
   12  O  1 ZZ    0.005843  -0.000000  -0.000000  -0.012159   0.010904
   13  O  1 XY   -0.000000  -0.000000  -0.000000   0.000000  -0.000000
   14  O  1 XZ   -0.000000   0.020249   0.110346   0.000000  -0.000000
   15  O  1 YZ   -0.000000  -0.000000  -0.000000   0.000000  -0.000000
   16  H  2  S   -0.070758  -0.025450   0.938956   0.836992  -0.451158
   17  H  2  S   -0.825240  -1.384340  -0.691594  -0.553898  -0.140565
   18  H  2  X    0.016447   0.020600   0.072013   0.265183   0.115673
   19  H  2  Y   -0.000000  -0.000000  -0.000000   0.000000  -0.000000
   20  H  2  Z    0.015047   0.015547   0.163074   0.027032   0.246343
   21  H  3  S   -0.070758   0.025450  -0.938956   0.836992  -0.451158
   22  H  3  S   -0.825240   1.384340   0.691594  -0.553898  -0.140565
   23  H  3  X   -0.016447   0.020600   0.072013  -0.265183  -0.115673
   24  H  3  Y   -0.000000  -0.000000  -0.000000   0.000000  -0.000000
   25  H  3  Z    0.015047  -0.015547  -0.163074   0.027032   0.246343

                     11         12         13         14         15
                    1.2018     1.2479     1.4539     1.4981     1.7022
                     A          A          A          A          A   
    1  O  1  S    0.000000   0.000000   0.000000  -0.267682   0.000000
    2  O  1  S    0.000000   0.000000   0.000000  -0.667789   0.000000
    3  O  1  S    0.000000   0.000000   0.000000   0.817347   0.000000
    4  O  1  X    0.000000  -0.717928   0.000000   0.000000   0.000000
    5  O  1  Y   -0.968099   0.000000   0.000000   0.000000   0.012406
    6  O  1  Z    0.000000   0.000000   0.000000   0.174913   0.000000
    7  O  1  X    0.000000   1.764384   0.000000   0.000000   0.000000
    8  O  1  Y    1.011809   0.000000   0.000000   0.000000  -0.647247
    9  O  1  Z    0.000000   0.000000   0.000000  -0.652151   0.000000
   10  O  1 XX    0.000000   0.000000   0.000000  -0.066905   0.000000
   11  O  1 YY    0.000000   0.000000   0.000000  -0.053774   0.000000
   12  O  1 ZZ    0.000000   0.000000   0.000000   0.120679   0.000000
   13  O  1 XY    0.000000   0.000000   0.132286   0.000000   0.000000
   14  O  1 XZ    0.000000   0.034129   0.000000   0.000000   0.000000
   15  O  1 YZ   -0.002431   0.000000   0.000000   0.000000   0.160877
   16  H  2  S    0.000000  -0.396976   0.000000   0.235525   0.000000
   17  H  2  S    0.000000  -0.775572   0.000000  -0.246289   0.000000
   18  H  2  X    0.000000   0.338823   0.000000  -0.255813   0.000000
   19  H  2  Y    0.024001   0.000000   0.679949   0.000000   0.771339
   20  H  2  Z    0.000000   0.134682   0.000000   0.572593   0.000000
   21  H  3  S    0.000000   0.396976   0.000000   0.235525   0.000000
   22  H  3  S    0.000000   0.775572   0.000000  -0.246289   0.000000
   23  H  3  X    0.000000   0.338823   0.000000   0.255813   0.000000
   24  H  3  Y    0.024001   0.000000  -0.679949   0.000000   0.771339
   25  H  3  Z    0.000000  -0.134682   0.000000   0.572593   0.000000

                     16         17         18         19         20
                    1.8826     1.8852     2.4298     2.4367     3.2381
                     A          A          A          A          A   
    1  O  1  S   -0.000000  -0.711990   0.000000   0.234558  -0.000000
    2  O  1  S   -0.000000  -1.568149   0.000000   0.647520  -0.000000
    3  O  1  S   -0.000000   2.879585   0.000000   0.862476  -0.000000
    4  O  1  X   -0.114093   0.000000   0.838601   0.000000  -0.000000
    5  O  1  Y   -0.000000   0.000000   0.000000   0.000000  -0.018968
    6  O  1  Z   -0.000000   0.054766   0.000000   0.613979  -0.000000
    7  O  1  X    1.025722   0.000000   0.240320   0.000000  -0.000000
    8  O  1  Y   -0.000000   0.000000   0.000000   0.000000   0.286607
    9  O  1  Z   -0.000000   0.950046   0.000000   0.219284  -0.000000
   10  O  1 XX   -0.000000  -0.025351   0.000000  -0.143584  -0.000000
   11  O  1 YY   -0.000000   0.152548   0.000000   0.210121  -0.000000
   12  O  1 ZZ   -0.000000  -0.127198   0.000000  -0.066538  -0.000000
   13  O  1 XY   -0.000000   0.000000   0.000000   0.000000  -0.000000
   14  O  1 XZ   -0.023002   0.000000  -0.136739   0.000000  -0.000000
   15  O  1 YZ   -0.000000   0.000000   0.000000   0.000000   1.031079
   16  H  2  S   -0.448845  -0.766041  -0.303979  -0.480775  -0.000000
   17  H  2  S   -0.112495  -0.372837  -0.330190  -0.170597  -0.000000
   18  H  2  X   -0.437793   0.396789   0.696672   0.797781  -0.000000
   19  H  2  Y   -0.000000   0.000000   0.000000   0.000000  -0.368862
   20  H  2  Z    0.675671  -0.124998   0.573367   0.465933  -0.000000
   21  H  3  S    0.448845  -0.766041   0.303979  -0.480775  -0.000000
   22  H  3  S    0.112495  -0.372837   0.330190  -0.170597  -0.000000
   23  H  3  X   -0.437793  -0.396789   0.696672  -0.797781  -0.000000
   24  H  3  Y   -0.000000   0.000000   0.000000   0.000000  -0.368862
   25  H  3  Z   -0.675671  -0.124998  -0.573367   0.465933  -0.000000

                     21         22         23         24
                    3.3438     3.4429     3.9046     4.0895
                     A          A          A          A   
    1  O  1  S   -0.000000  -0.090744  -0.148010  -0.000000
    2  O  1  S   -0.000000  -0.156241  -0.188026  -0.000000
    3  O  1  S   -0.000000   0.725155   2.119809  -0.000000
    4  O  1  X   -0.000000  -0.000000   0.000000   0.432094
    5  O  1  Y   -0.000000  -0.000000   0.000000  -0.000000
    6  O  1  Z   -0.000000   0.050043   0.355673  -0.000000
    7  O  1  X   -0.000000  -0.000000   0.000000   1.161294
    8  O  1  Y   -0.000000  -0.000000   0.000000  -0.000000
    9  O  1  Z   -0.000000   0.576039   0.770670  -0.000000
   10  O  1 XX   -0.000000  -0.512556   1.075429  -0.000000
   11  O  1 YY   -0.000000  -0.553496  -0.989056  -0.000000
   12  O  1 ZZ   -0.000000   1.066052  -0.086374  -0.000000
   13  O  1 XY    1.064951  -0.000000   0.000000  -0.000000
   14  O  1 XZ   -0.000000  -0.000000   0.000000   1.300753
   15  O  1 YZ   -0.000000  -0.000000   0.000000  -0.000000
   16  H  2  S   -0.000000  -0.378143  -1.128717  -1.031758
   17  H  2  S   -0.000000  -0.062650  -0.185771  -0.280465
   18  H  2  X   -0.000000   0.401783   0.614043   0.610344
   19  H  2  Y   -0.366973  -0.000000   0.000000  -0.000000
   20  H  2  Z   -0.000000  -0.273388   0.492407   0.427183
   21  H  3  S   -0.000000  -0.378143  -1.128717   1.031758
   22  H  3  S   -0.000000  -0.062650  -0.185771   0.280465
   23  H  3  X   -0.000000  -0.401783  -0.614043   0.610344
   24  H  3  Y    0.366973  -0.000000   0.000000  -0.000000
   25  H  3  Z   -0.000000  -0.273388   0.492407  -0.427183
 ...... END OF RHF CALCULATION ......
 STEP CPU TIME =     0.01 TOTAL CPU TIME =        0.0 (    0.0 MIN)
 TOTAL WALL CLOCK TIME=        0.0 SECONDS, CPU UTILIZATION IS  75.00%

     ----------------------------------------------------------------
     PROPERTY VALUES FOR THE RHF   SELF-CONSISTENT FIELD WAVEFUNCTION
     ----------------------------------------------------------------

          -----------------
          ENERGY COMPONENTS
          -----------------

         WAVEFUNCTION NORMALIZATION =       1.0000000000

                ONE ELECTRON ENERGY =    -122.8396302397
                TWO ELECTRON ENERGY =      37.8062312603
           NUCLEAR REPULSION ENERGY =       9.0093603723
                                      ------------------
                       TOTAL ENERGY =     -76.0240386072

 ELECTRON-ELECTRON POTENTIAL ENERGY =      37.8062312603
  NUCLEUS-ELECTRON POTENTIAL ENERGY =    -198.7512617166
   NUCLEUS-NUCLEUS POTENTIAL ENERGY =       9.0093603723
                                      ------------------
             TOTAL POTENTIAL ENERGY =    -151.9356700841
               TOTAL KINETIC ENERGY =      75.9116314769
                 VIRIAL RATIO (V/T) =       2.0014807629

  ...... PI ENERGY ANALYSIS ......

 ENERGY ANALYSIS:
            FOCK ENERGY=    -47.2271695220
          BARE H ENERGY=   -122.8396302397
     ELECTRONIC ENERGY =    -85.0333998808
         KINETIC ENERGY=     75.9116314769
          N-N REPULSION=      9.0093603723
           TOTAL ENERGY=    -76.0240395086
        SIGMA PART(1+2)=    -77.4637755296
               (K,V1,2)=     71.3589208239   -180.0383196551     31.2156233016
           PI PART(1+2)=     -7.5696243513
               (K,V1,2)=      4.5527106530    -18.7129420615      6.5906070572
  SIGMA SKELETON, ERROR=    -68.4544151573     -0.0000000000
             MIXED PART= 0.00000E+00 0.00000E+00 0.00000E+00 0.00000E+00
 ...... END OF PI ENERGY ANALYSIS ......

          ---------------------------------------
          MULLIKEN AND LOWDIN POPULATION ANALYSES
          ---------------------------------------

     ATOMIC MULLIKEN POPULATION IN EACH MOLECULAR ORBITAL

                      1          2          3          4          5

                  2.000000   2.000000   2.000000   2.000000   2.000000

    1             2.000191   1.516459   1.142274   1.724906   1.959085
    2            -0.000095   0.241770   0.428863   0.137547   0.020457
    3            -0.000095   0.241770   0.428863   0.137547   0.020457

               ----- POPULATIONS IN EACH AO -----
                             MULLIKEN      LOWDIN
              1  O  1  S      2.00170     1.90299
              2  O  1  S      0.83008     0.59211
              3  O  1  S      0.83734     0.50299
              4  O  1  X      0.75848     0.68390
              5  O  1  Y      1.12501     1.08444
              6  O  1  Z      0.93123     0.88395
              7  O  1  X      0.37586     0.53112
              8  O  1  Y      0.83312     0.79764
              9  O  1  Z      0.63934     0.70615
             10  O  1 XX      0.00094     0.18698
             11  O  1 YY      0.00093     0.17491
             12  O  1 ZZ      0.00000     0.17663
             13  O  1 XY      0.00794     0.00000
             14  O  1 XZ      0.00096     0.01579
             15  O  1 YZ      0.00000     0.00024
             16  H  2  S      0.67091     0.54373
             17  H  2  S      0.07445     0.16650
             18  H  2  X      0.03878     0.05905
             19  H  2  Y      0.02046     0.05884
             20  H  2  Z      0.02394     0.05195
             21  H  3  S      0.67091     0.54373
             22  H  3  S      0.07445     0.16650
             23  H  3  X      0.03878     0.05905
             24  H  3  Y      0.02046     0.05884
             25  H  3  Z      0.02394     0.05195

          ----- MULLIKEN ATOMIC OVERLAP POPULATIONS -----
          (OFF-DIAGONAL ELEMENTS NEED TO BE MULTIPLIED BY 2)

             1           2           3

    1    7.6192764
    2    0.3618188   0.4984761
    3    0.3618188  -0.0317519   0.4984761

          TOTAL MULLIKEN AND LOWDIN ATOMIC POPULATIONS
       ATOM         MULL.POP.    CHARGE          LOW.POP.     CHARGE
    1 OXYGEN        8.342914   -0.342914         8.239860   -0.239860
    2 HYDROGEN      0.828543    0.171457         0.880070    0.119930
    3 HYDROGEN      0.828543    0.171457         0.880070    0.119930

          MULLIKEN SPHERICAL HARMONIC POPULATIONS
       ATOM           S       P       D      F      G      H      I    TOTAL
    1 OXYGEN        3.67    4.66    0.01   0.00   0.00   0.00   0.00    8.34
    2 HYDROGEN      0.75    0.08    0.00   0.00   0.00   0.00   0.00    0.83
    3 HYDROGEN      0.75    0.08    0.00   0.00   0.00   0.00   0.00    0.83

          -------------------------------
          BOND ORDER AND VALENCE ANALYSIS     BOND ORDER THRESHOLD=0.050
          -------------------------------

                   BOND                       BOND                       BOND
  ATOM PAIR DIST  ORDER      ATOM PAIR DIST  ORDER      ATOM PAIR DIST  ORDER
    1   2  0.976  1.007        1   3  0.976  1.007

                       TOTAL       BONDED        FREE
      ATOM            VALENCE     VALENCE     VALENCE
    1 OXYGEN            2.015       2.015      -0.000
    2 HYDROGEN          1.017       1.017      -0.000
    3 HYDROGEN          1.017       1.017      -0.000

          ---------------------
          ELECTROSTATIC MOMENTS
          ---------------------

 POINT   1           X           Y           Z (BOHR)    CHARGE
                 0.000000    0.000000    0.117499       -0.00 (A.U.)
         DX          DY          DZ         /D/  (DEBYE)
    -0.000000    0.000000    1.976521    1.976521
 ...... END OF PROPERTY EVALUATION ......
 STEP CPU TIME =     0.00 TOTAL CPU TIME =        0.0 (    0.0 MIN)
 TOTAL WALL CLOCK TIME=        0.0 SECONDS, CPU UTILIZATION IS  75.00%

 **************************************************************
 *                                                            *
 *         ENTERING VB2000 INTERFACED INTO GAMESS(US)         *
 *                                                            *
 **************************************************************

 **************************************************************
 *                                                            *
 *                        V B 2 0 0 0                         *
 *                                                            *
 *       An ab initio Valence-Bond Program Based on the       *
 *           Generalized Product Function Method and          *
 *                   the Algebrant Algorithm                  *
 *                                                            *
 *                   Version 2.7 October 2013                 *
 *                      GAMESS(US) Version                    *
 *                     Compiler: gfortran                     *
 *                                                            *
 *         Jiabo Li*, Brian Duke** and Roy McWeeny***         *
 *                                                            *
 *        * SciNet Technologies, 9943 Fieldthorn St.,         *
 *                   San Diego, CA 92127, USA                 *
 *                                                            *
 *  ** Monash University Institute of Pharmaceutical Sciences,*
 *     381 Royal Pde, Parkville, Victoria, 3052, Australia    *
 *                                                            *
 * *** Department of Chemistry, University of Pisa,           *
 *     56100 Pisa, Italy                                      *
 *                                                            *
 *  Reference for the software:                               *
 *     Jiabo Li, Brian Duke, and Roy McWeeny, VB2000 Version  *
 *     2.7, SciNet Technologies, San Diego, CA, 2013          *
 *     URL: http://www.scinetec.com or http://www.vb2000.net  *
 *                                                            *
 *  References for the theory:                                *
 *     General:                                               *
 *     Jiabo Li, and Roy McWeeny, "VB2000: Pushing Valence    *
 *     Bond Theory to New Limits", Int. J. Quantum Chem.,     *
 *     89(2002)208-216.                                       *
 *                                                            *
 *     Spin densities:-                                       *
 *     Jiabo Li, Brian J. Duke, Thomas M. Klapoetke, and Roy  *
 *     McWeeny, Spin-Density of Spin-Free Valence Bond Wave   *
 *     Functions and Its Implementation in VB2000. J. Theor.  *
 *     Comp. Chem. 7(2008)853-867.                            *
 *                                                            *
 *     Spin coupled - n electrons in m orbitals:-             *
 *     Peter B. Karadakov, David L. Cooper, Brian J. Duke,    *
 *     and Jiabo Li, Spin-Coupled Theory for N Electrons in   *
 *     M Orbitals Active Spaces,  J. Phys. Chem. A, 116,      *
 *     7238 - 7244, 2012                                      *
 *                                                            *
 *  Copyright (C) 2000-2013 by SciNet Technologies            *
 **************************************************************

 JOB NAME IS exam-vb11                                                       

 VB2000 DIRECTORY IS: /home/brian/qchem/gamess/vb2000                                                 
 MAXIMUM MEMORY USE IS:     6500000
 THIS IS TAKEN AS THE MAXIMUM OF THE UNUSED MEMORY REQUESTED
 IN GAMESS $SYSTEM BLOCK AND MEMORY REQUESTED IN VB2000 DATA

 Input of molecule
 =================
 #! VB(4)/CC-PVDZ SPHER PRINTALL                                                 
                                                                                 
 Title: TEST H2O VB(4)                                                                  

 Charge =  0 Multiplicity =  1

 ATOM      ATOMIC                      COORDINATES (ANGS)
           CHARGE         X                   Y                   Z
 OXYGEN      8.0     0.0000000000        0.0000000000        0.0000000000
 HYDROGEN    1.0     0.8018419996        0.0000000000        0.5555819997
 HYDROGEN    1.0    -0.8018419996        0.0000000000        0.5555819997

 Hartree-Fock Energy from Gamess run =     -76.024038607158

 Basis set size =   25

                    PARAMETER LIMIT VALUES
 Max. no. of atoms                    MAXCEN =   200
 Max. no. of basis functions          MAXBFN =   726
 Max. no. of shells                   MAXSHL =   500
 Max. no. of total primitives         MAXEXP =  1000
 Max. no. of primitives per orbital   MAXPRM =    15
 Max. no. of atoms * no. of orbitals  MAXNAB = 72600
 Increase max basis set size by       NEXTRA =    20
 Max. size for Rumer data             MAXST1 = 33334
 Max. no. of orbitals in group        MAXNOB =   200
 Max. no. of CUBE orbitals            MAXCUB =   100
 Max. no. of groups                   MAXGRP =    99

 BASIS IN $BASIS IS CCD     

 VBO LIB IS: /home/brian/qchem/gamess/vb2000/VBOLIB/VBOLIBCCPVDZ                             
 MODIFYING VBOLIB FOR GAMESS

 Molecular orbitals by HF method
 ===============================================================================
 MO#                       1         2         3         4         5         6
 E(a.u.)             -20.550    -1.323    -0.700    -0.551    -0.490     0.183
 -------------------------------------------------------------------------------

   1  1  O     s    -1.00087   0.00814   0.00000  -0.00176   0.00000   0.05230
   2  1  O     s    -0.00109  -0.44507   0.00000   0.14151   0.00000  -0.07636
   3  1  O     s     0.00279  -0.39326   0.00000   0.32594   0.00000  -0.99743
   4  1  O     x     0.00000   0.00000  -0.48432   0.00000   0.00000   0.00000
   5  1  O     y     0.00000   0.00000   0.00000   0.00000   0.63093   0.00000
   6  1  O     z    -0.00165  -0.07056   0.00000  -0.55132   0.00000  -0.19017
   7  1  O     x     0.00000   0.00000  -0.21720   0.00000   0.00000   0.00000
   8  1  O     y     0.00000   0.00000   0.00000   0.00000   0.49773   0.00000
   9  1  O     z     0.00053   0.00827   0.00000  -0.38366   0.00000  -0.32950
  10  1  O    xx    -0.00012  -0.00263   0.00000   0.00427   0.00000  -0.00513
  11  1  O    yy     0.00009   0.00318   0.00000   0.01266   0.00000   0.01097
  12  1  O    zz     0.00003  -0.00055   0.00000  -0.01693   0.00000  -0.00584
  13  1  O    xy     0.00000   0.00000   0.00000   0.00000   0.00000   0.00000
  14  1  O    xz     0.00000   0.00000  -0.02503   0.00000   0.00000   0.00000
  15  1  O    yz     0.00000   0.00000   0.00000   0.00000   0.01732   0.00000
  16  2  H     s     0.00016  -0.18301  -0.32779  -0.19629   0.00000   0.07076
  17  2  H     s    -0.00044  -0.01098  -0.08899  -0.04414   0.00000   0.82524
  18  2  H     x    -0.00053   0.03710   0.02612   0.02988   0.00000  -0.01645
  19  2  H     y     0.00000   0.00000   0.00000   0.00000   0.02999   0.00000
  20  2  H     z    -0.00042   0.01765   0.03102  -0.00914   0.00000  -0.01505
  21  3  H     s     0.00016  -0.18301   0.32779  -0.19629   0.00000   0.07076
  22  3  H     s    -0.00044  -0.01098   0.08899  -0.04414   0.00000   0.82524
  23  3  H     x     0.00053  -0.03710   0.02612  -0.02988   0.00000   0.01645
  24  3  H     y     0.00000   0.00000   0.00000   0.00000   0.02999   0.00000
  25  3  H     z    -0.00042   0.01765  -0.03102  -0.00914   0.00000  -0.01505

 MO#                       7         8         9        10
 E(a.u.)               0.253     0.798     0.810     1.163
 -------------------------------------------------------------------------------

   1  1  O     s     0.00000   0.00000  -0.05750   0.01147
   2  1  O     s     0.00000   0.00000  -0.23875  -0.06940
   3  1  O     s     0.00000   0.00000   0.23591  -0.72747
   4  1  O     x    -0.28546   0.29376   0.00000   0.00000
   5  1  O     y     0.00000   0.00000   0.00000   0.00000
   6  1  O     z     0.00000   0.00000  -0.27949   0.79220
   7  1  O     x    -0.67782   0.41882   0.00000   0.00000
   8  1  O     y     0.00000   0.00000   0.00000   0.00000
   9  1  O     z     0.00000   0.00000  -0.06503  -1.22295
  10  1  O    xx     0.00000   0.00000   0.09763   0.00239
  11  1  O    yy     0.00000   0.00000  -0.08548   0.00851
  12  1  O    zz     0.00000   0.00000  -0.01216  -0.01090
  13  1  O    xy     0.00000   0.00000   0.00000   0.00000
  14  1  O    xz    -0.02025  -0.11035   0.00000   0.00000
  15  1  O    yz     0.00000   0.00000   0.00000   0.00000
  16  2  H     s     0.02545  -0.93896   0.83699   0.45116
  17  2  H     s     1.38434   0.69159  -0.55390   0.14056
  18  2  H     x    -0.02060  -0.07201   0.26518  -0.11567
  19  2  H     y     0.00000   0.00000   0.00000   0.00000
  20  2  H     z    -0.01555  -0.16307   0.02703  -0.24634
  21  3  H     s    -0.02545   0.93896   0.83699   0.45116
  22  3  H     s    -1.38434  -0.69159  -0.55390   0.14056
  23  3  H     x    -0.02060  -0.07201  -0.26518   0.11567
  24  3  H     y     0.00000   0.00000   0.00000   0.00000
  25  3  H     z     0.01555   0.16307   0.02703  -0.24634


 Localized molecular orbitals and the bond labels
 ===============================================================================
 LMO#                      1         2         3         4         5
 E(a.u.)             -19.345    -1.969    -0.490    -0.905    -0.905
 Bond Label            1:(0)     1:(1)     1:(2)    2-1(1)    3-1(1)
 -------------------------------------------------------------------------------

   1  1  O     s    -0.97135   0.23646   0.00001  -0.03443   0.03443
   2  1  O     s     0.10495   0.36281  -0.00000  -0.19425   0.19425
   3  1  O     s     0.12941   0.47835  -0.00001  -0.08756   0.08756
   4  1  O     x     0.00000   0.00000  -0.00000  -0.34247  -0.34247
   5  1  O     y     0.00001   0.00000   0.63093  -0.00000   0.00000
   6  1  O     z    -0.07915  -0.39530   0.00000  -0.27056   0.27056
   7  1  O     x     0.00000   0.00000  -0.00000  -0.15358  -0.15358
   8  1  O     y     0.00001   0.00000   0.49773  -0.00000   0.00000
   9  1  O     z    -0.06412  -0.30782   0.00000  -0.15556   0.15556
  10  1  O    xx     0.00108   0.00488  -0.00000   0.00028  -0.00028
  11  1  O    yy     0.00158   0.00819  -0.00000   0.00710  -0.00710
  12  1  O    zz    -0.00266  -0.01307   0.00000  -0.00739   0.00739
  13  1  O    xy     0.00000   0.00000   0.00000   0.00000   0.00000
  14  1  O    xz     0.00000   0.00000  -0.00000  -0.01770  -0.01770
  15  1  O    yz     0.00000   0.00000   0.01732  -0.00000   0.00000
  16  2  H     s     0.00189  -0.05196   0.00000  -0.41795  -0.04562
  17  2  H     s    -0.00564  -0.02857   0.00000  -0.08763  -0.03822
  18  2  H     x    -0.00249   0.00283   0.00000   0.05205  -0.01511
  19  2  H     y     0.00000   0.00000   0.02999  -0.00000   0.00000
  20  2  H     z    -0.00519  -0.01706   0.00000   0.02814   0.01572
  21  3  H     s     0.00189  -0.05196   0.00000   0.04562   0.41795
  22  3  H     s    -0.00564  -0.02857   0.00000   0.03822   0.08763
  23  3  H     x     0.00249  -0.00283  -0.00000  -0.01511   0.05205
  24  3  H     y     0.00000   0.00000   0.02999  -0.00000   0.00000
  25  3  H     z    -0.00519  -0.01706   0.00000  -0.01572  -0.02814


 Mulliken population of localized molecular orbitals
 ===============================================================================
 LMO#                      1         2         3         4         5
 E(a.u.)             -19.345    -1.969    -0.490    -0.905    -0.905
 Bond Label            1:(0)     1:(1)     1:(2)    2-1(1)    3-1(1)
 -------------------------------------------------------------------------------

   1         O       2.00065   2.02778   1.95909   1.17770   1.17770
   2         H      -0.00033  -0.01389   0.02046   0.83001  -0.00771
   3         H      -0.00033  -0.01389   0.02046  -0.00771   0.83001


 PARTITIONING OF LMOs INTO GROUPS ($LMOGRP)
 =======================================================================
 LMO#     1  2  3  4  5
 Group#   1  1  1  2  2
 Split    0  0  0  1  1

 WARNING: Initial orbital  8 undefined from DISLMO
 Initial orbital



 Initial guess of orbitals
 ===============================================================================
 ORBITAL#                  1         2         3         4         5         6
 Bond Label            1:(0)     1:(1)     1:(2)    2-1(1)    2-1(1)    3-1(1)
 -------------------------------------------------------------------------------

   1  1  O     s    -0.97135   0.23646   0.00001  -0.07526   0.03161   0.07526
   2  1  O     s     0.10495   0.36281  -0.00000  -0.33820   0.05360   0.33820
   3  1  O     s     0.12941   0.47835  -0.00001  -0.17929   0.07064   0.17929
   4  1  O     x     0.00000   0.00000  -0.00000  -0.54171   0.00000  -0.54171
   5  1  O     y     0.00001   0.00000   0.63093  -0.00000  -0.00000   0.00000
   6  1  O     z    -0.07915  -0.39530   0.00000  -0.39425  -0.05829   0.39425
   7  1  O     x     0.00000   0.00000  -0.00000  -0.24294   0.00000  -0.24294
   8  1  O     y     0.00001   0.00000   0.49773  -0.00000  -0.00000   0.00000
   9  1  O     z    -0.06412  -0.30782   0.00000  -0.21981  -0.04540   0.21981
  10  1  O    xx     0.00108   0.00488  -0.00000   0.00003   0.00072  -0.00003
  11  1  O    yy     0.00158   0.00819  -0.00000   0.01054   0.00121  -0.01054
  12  1  O    zz    -0.00266  -0.01307   0.00000  -0.01057  -0.00193   0.01057
  13  1  O    xy    -0.00000  -0.00000  -0.00000   0.00000   0.00000  -0.00000
  14  1  O    xz     0.00000   0.00000  -0.00000  -0.02800   0.00000  -0.02800
  15  1  O    yz     0.00000   0.00000   0.01732  -0.00000  -0.00000   0.00000
  16  2  H     s     0.00189  -0.05196   0.00000   0.00444  -0.87714  -0.00444
  17  2  H     s    -0.00564  -0.02857   0.00000   0.00244  -0.18652  -0.00244
  18  2  H     x    -0.00249   0.00283   0.00000  -0.00024   0.10869   0.00024
  19  2  H     y     0.00000   0.00000   0.02999   0.00000  -0.00000  -0.00000
  20  2  H     z    -0.00519  -0.01706   0.00000   0.00145   0.05602  -0.00145
  21  3  H     s     0.00189  -0.05196   0.00000   0.00444  -0.00762  -0.00444
  22  3  H     s    -0.00564  -0.02857   0.00000   0.00244  -0.00421  -0.00244
  23  3  H     x     0.00249  -0.00283  -0.00000   0.00024  -0.00041  -0.00024
  24  3  H     y     0.00000   0.00000   0.02999   0.00000  -0.00000  -0.00000
  25  3  H     z    -0.00519  -0.01706   0.00000   0.00145  -0.00252  -0.00145

 ORBITAL#                  7         8
 Bond Label           3-1(1)          
 -------------------------------------------------------------------------------

   1  1  O     s    -0.03161  -0.16945
   2  1  O     s    -0.05360  -1.32291
   3  1  O     s    -0.07064  -2.08434
   4  1  O     x    -0.00000   0.00000
   5  1  O     y     0.00000   0.00000
   6  1  O     z     0.05829   0.15963
   7  1  O     x    -0.00000   0.00000
   8  1  O     y     0.00000  -0.00000
   9  1  O     z     0.04540  -0.10632
  10  1  O    xx    -0.00072   1.58788
  11  1  O    yy    -0.00121   1.44053
  12  1  O    zz     0.00193   1.49352
  13  1  O    xy    -0.00000  -0.00000
  14  1  O    xz    -0.00000   0.00000
  15  1  O    yz     0.00000  -0.00000
  16  2  H     s     0.00762  -0.10395
  17  2  H     s     0.00421   0.28012
  18  2  H     x    -0.00041   0.20557
  19  2  H     y     0.00000   0.00000
  20  2  H     z     0.00252   0.17180
  21  3  H     s     0.87714  -0.10395
  22  3  H     s     0.18652   0.28012
  23  3  H     x     0.10869  -0.20557
  24  3  H     y     0.00000   0.00000
  25  3  H     z    -0.05602   0.17180


      GENERAL CONTROLS ($GENCTL)
 ====================================
 Number of electron groups       =    3
 Maximum macro-iterations        =   20
 Energy threshold           = 10**(- 8)
 Restart calculation(0/1/2)      =    0
 Group#                     1  2  3
 Num. of electrons          6  4  0
 Num. of spins              0  0  0
 Num. of orbitals           3  4  1
 Method#                    1  2 99

 SYMBOLIC VB STRUCTURE(S) OF GROUP  2
 STR. NO.       RUMER PATTERN  
    1           1  2   3  4

 $02VBSCF VALUES ARE EPS = 0.00010000 AND MAXIT =100

 MAP FILE IS: /home/brian/qchem/gamess/vb2000/MAP/MAP0400t                                    

 VB-ORBITAL OPTIMIZATION OF GROUP  2 ...
 GROUP =  2  ITER =  1 CMAX =  0.15000000000000
 GROUP =  2  ITER =  2 CMAX =  0.10051609771183
 GROUP =  2  ITER =  3 CMAX =  0.05470074932340
 GROUP =  2  ITER =  4 CMAX =  0.02147061854595
 GROUP =  2  ITER =  5 CMAX =  0.00489200374286
 GROUP =  2  ITER =  6 CMAX =  0.00210541305066
 GROUP =  2  ITER =  7 CMAX =  0.00088612740756
 GROUP =  2  ITER =  8 CMAX =  0.00036817602892
 GROUP =  2  ITER =  9 CMAX =  0.00015189756644
 GROUP =  2  ITER = 10 CMAX =  0.00006242695593

 ENERGY AND DIFF OF MACROITER    1 =    -76.05634861    -76.05634861

 VB-ORBITAL OPTIMIZATION OF GROUP  2 ...
 GROUP =  2  ITER =  1 CMAX =  0.01614857450500
 GROUP =  2  ITER =  2 CMAX =  0.01283102932156
 GROUP =  2  ITER =  3 CMAX =  0.01163989312808
 GROUP =  2  ITER =  4 CMAX =  0.00962926433199
 GROUP =  2  ITER =  5 CMAX =  0.00402525466023
 GROUP =  2  ITER =  6 CMAX =  0.00155440215704
 GROUP =  2  ITER =  7 CMAX =  0.00053303117455
 GROUP =  2  ITER =  8 CMAX =  0.00018686926974
 GROUP =  2  ITER =  9 CMAX =  0.00006200856629

 ENERGY AND DIFF OF MACROITER    2 =    -76.06608332     -0.00973471

 VB-ORBITAL OPTIMIZATION OF GROUP  2 ...
 GROUP =  2  ITER =  1 CMAX =  0.00460683383947
 GROUP =  2  ITER =  2 CMAX =  0.01661172076876
 GROUP =  2  ITER =  3 CMAX =  0.00236796015406
 GROUP =  2  ITER =  4 CMAX =  0.00003223179372

 ENERGY AND DIFF OF MACROITER    3 =    -76.06657009     -0.00048676

 VB-ORBITAL OPTIMIZATION OF GROUP  2 ...
 GROUP =  2  ITER =  1 CMAX =  0.00276980699414
 GROUP =  2  ITER =  2 CMAX =  0.00692875005234
 GROUP =  2  ITER =  3 CMAX =  0.00033676172978
 GROUP =  2  ITER =  4 CMAX =  0.00000150112292

 ENERGY AND DIFF OF MACROITER    4 =    -76.06676253     -0.00019244

 VB-ORBITAL OPTIMIZATION OF GROUP  2 ...
 GROUP =  2  ITER =  1 CMAX =  0.00169935623794
 GROUP =  2  ITER =  2 CMAX =  0.00422381300863
 GROUP =  2  ITER =  3 CMAX =  0.00014305285336
 GROUP =  2  ITER =  4 CMAX =  0.00000005954985

 ENERGY AND DIFF OF MACROITER    5 =    -76.06684564     -0.00008311

 VB-ORBITAL OPTIMIZATION OF GROUP  2 ...
 GROUP =  2  ITER =  1 CMAX =  0.00092106965610
 GROUP =  2  ITER =  2 CMAX =  0.00174627290453
 GROUP =  2  ITER =  3 CMAX =  0.00003903282505

 ENERGY AND DIFF OF MACROITER    6 =    -76.06686894     -0.00002330

 VB-ORBITAL OPTIMIZATION OF GROUP  2 ...
 GROUP =  2  ITER =  1 CMAX =  0.00048441407169
 GROUP =  2  ITER =  2 CMAX =  0.00094913427329
 GROUP =  2  ITER =  3 CMAX =  0.00000972176101

 ENERGY AND DIFF OF MACROITER    7 =    -76.06687849     -0.00000956

 VB-ORBITAL OPTIMIZATION OF GROUP  2 ...
 GROUP =  2  ITER =  1 CMAX =  0.00037554854940
 GROUP =  2  ITER =  2 CMAX =  0.00051160222990
 GROUP =  2  ITER =  3 CMAX =  0.00000612961945

 ENERGY AND DIFF OF MACROITER    8 =    -76.06688361     -0.00000511

 VB-ORBITAL OPTIMIZATION OF GROUP  2 ...
 GROUP =  2  ITER =  1 CMAX =  0.00023956929516
 GROUP =  2  ITER =  2 CMAX =  0.00042270075894
 GROUP =  2  ITER =  3 CMAX =  0.00000252972181

 ENERGY AND DIFF OF MACROITER    9 =    -76.06688611     -0.00000250

 VB-ORBITAL OPTIMIZATION OF GROUP  2 ...
 GROUP =  2  ITER =  1 CMAX =  0.00018857813268
 GROUP =  2  ITER =  2 CMAX =  0.00024939104888
 GROUP =  2  ITER =  3 CMAX =  0.00000159561530

 ENERGY AND DIFF OF MACROITER   10 =    -76.06688733     -0.00000122

 VB-ORBITAL OPTIMIZATION OF GROUP  2 ...
 GROUP =  2  ITER =  1 CMAX =  0.00012210490814
 GROUP =  2  ITER =  2 CMAX =  0.00020158894945
 GROUP =  2  ITER =  3 CMAX =  0.00000067846864

 ENERGY AND DIFF OF MACROITER   11 =    -76.06688791     -0.00000058

 VB-ORBITAL OPTIMIZATION OF GROUP  2 ...
 GROUP =  2  ITER =  1 CMAX =  0.00009213454459

 ENERGY AND DIFF OF MACROITER   12 =    -76.06688818     -0.00000027

 VB-ORBITAL OPTIMIZATION OF GROUP  2 ...
 GROUP =  2  ITER =  1 CMAX =  0.00008686428256

 ENERGY AND DIFF OF MACROITER   13 =    -76.06688831     -0.00000013

 VB-ORBITAL OPTIMIZATION OF GROUP  2 ...
 GROUP =  2  ITER =  1 CMAX =  0.00007798300175

 ENERGY AND DIFF OF MACROITER   14 =    -76.06688837     -0.00000006

 VB-ORBITAL OPTIMIZATION OF GROUP  2 ...
 GROUP =  2  ITER =  1 CMAX =  0.00006308848441

 ENERGY AND DIFF OF MACROITER   15 =    -76.06688840     -0.00000003

 VB-ORBITAL OPTIMIZATION OF GROUP  2 ...
 GROUP =  2  ITER =  1 CMAX =  0.00005098242522

 ENERGY AND DIFF OF MACROITER   16 =    -76.06688841     -0.00000001

 VB-ORBITAL OPTIMIZATION OF GROUP  2 ...
 GROUP =  2  ITER =  1 CMAX =  0.00004015719285

 ENERGY AND DIFF OF MACROITER   17 =    -76.06688842     -0.00000001

 VB-ORBITAL OPTIMIZATION OF GROUP  2 ...
 GROUP =  2  ITER =  1 CMAX =  0.00003223158955


 OVERLAP MATRIX OF VB ORBITALS FOR GROUP   2

        1      2      3      4
 ===============================
   1 1.0000
   2 0.8085 1.0000
   3-0.1785-0.0652 1.0000
   4-0.0652 0.0253 0.8085 1.0000

 ENERGY AND DIFF OF MACROITER   18 =    -76.06688842     -0.00000000


 MULLIKEN CHARGES ON ATOMS
 -------------------------
  ATOM             CHARGE 

    1            -0.30482
    2             0.15241
    3             0.15241

 -------------------------


 ORBITALS OF EACH ELECTRON GROUP IN AO BASIS: ORBITAL(GROUP)
 ===========================================================================
    Orbital#             1         2         3         4         5         6
      Group#             1         1         1         2         2         2
 ---------------------------------------------------------------------------
  AO# LABELS
   1  1  O     s  -0.99300  -0.12560   0.00001  -0.03097   0.02708   0.03097
   2  1  O     s   0.05783  -0.43405   0.00000  -0.23468   0.00160   0.23468
   3  1  O     s   0.07127  -0.51007   0.00001  -0.05182   0.08752   0.05182
   4  1  O     x   0.00000  -0.00000   0.00000  -0.47461  -0.15433  -0.47461
   5  1  O     y  -0.00001  -0.00001  -0.63114   0.00000  -0.00000  -0.00000
   6  1  O     z  -0.03758   0.28217  -0.00000  -0.50177  -0.16469   0.50177
   7  1  O     x   0.00000  -0.00000   0.00000  -0.15937  -0.10706  -0.15937
   8  1  O     y  -0.00000  -0.00001  -0.49795  -0.00000   0.00000  -0.00000
   9  1  O     z  -0.03043   0.23927  -0.00000  -0.21758  -0.18323   0.21758
  10  1  O    xx   0.00046  -0.00442   0.00000  -0.00095   0.00290   0.00095
  11  1  O    yy   0.00078  -0.00548   0.00000   0.01743  -0.00041  -0.01743
  12  1  O    zz  -0.00124   0.00991  -0.00000  -0.01648  -0.00248   0.01648
  13  1  O    xy  -0.00000   0.00000  -0.00000   0.00000  -0.00000   0.00000
  14  1  O    xz   0.00000  -0.00000   0.00000  -0.03329   0.00022  -0.03329
  15  1  O    yz  -0.00000  -0.00000  -0.01717   0.00000  -0.00000  -0.00000
  16  2  H     s   0.00380  -0.01888   0.00000  -0.11936  -0.70108  -0.00605
  17  2  H     s  -0.00297   0.02010  -0.00000  -0.03864  -0.13754  -0.01416
  18  2  H     x  -0.00218   0.01085  -0.00000   0.03297   0.05811  -0.01838
  19  2  H     y  -0.00000  -0.00000  -0.02945  -0.00000   0.00000  -0.00000
  20  2  H     z  -0.00299   0.01899  -0.00000   0.01906   0.02072   0.01474
  21  3  H     s   0.00380  -0.01888   0.00000   0.00605   0.03956   0.11936
  22  3  H     s  -0.00297   0.02010  -0.00000   0.01416   0.03917   0.03864
  23  3  H     x   0.00218  -0.01085   0.00000  -0.01838  -0.01162   0.03297
  24  3  H     y  -0.00000  -0.00000  -0.02945   0.00000   0.00000   0.00000
  25  3  H     z  -0.00299   0.01899  -0.00000  -0.01474  -0.01862  -0.01906

 ===========================================================================
    Orbital#             7         8
      Group#             2         3
 ---------------------------------------------------------------------------
  AO# LABELS
   1  1  O     s  -0.02708  -0.16945
   2  1  O     s  -0.00160  -1.32291
   3  1  O     s  -0.08752  -2.08434
   4  1  O     x  -0.15433   0.00000
   5  1  O     y  -0.00000   0.00000
   6  1  O     z   0.16469   0.15963
   7  1  O     x  -0.10706   0.00000
   8  1  O     y  -0.00000  -0.00000
   9  1  O     z   0.18323  -0.10632
  10  1  O    xx  -0.00290   1.58788
  11  1  O    yy   0.00041   1.44053
  12  1  O    zz   0.00248   1.49352
  13  1  O    xy  -0.00000  -0.00000
  14  1  O    xz   0.00022   0.00000
  15  1  O    yz   0.00000  -0.00000
  16  2  H     s  -0.03956  -0.10395
  17  2  H     s  -0.03917   0.28012
  18  2  H     x  -0.01162   0.20557
  19  2  H     y  -0.00000   0.00000
  20  2  H     z   0.01862   0.17180
  21  3  H     s   0.70108  -0.10395
  22  3  H     s   0.13754   0.28012
  23  3  H     x   0.05811  -0.20557
  24  3  H     y  -0.00000   0.00000
  25  3  H     z  -0.02072   0.17180


 CALCULATION OF POSITION AND EXTENT OF VB ORBITALS

 DEFAULT CENTROIDS AND EXTENTS.

 MOLECULAR GEOMETRY ABOUT CENTER OF MASS

  Atom#   ATOMIC NO.     X        Y        Z
    1         8        0.0000   0.0000  -0.0622
    2         1        0.8018   0.0000   0.4934
    3         1       -0.8018   0.0000   0.4934

 CENTROIDS OF CHARGE FOR EACH VB GROUP & DISTANCES FROM 3 ATOMS

                                                  DISTANCES FROM ATOMS
 Orbital#   Group#       X        Y        Z        1        2        3
    4         2        0.1830  -0.0000   0.1338   0.2681   0.7158   1.0484
    5         2        0.5900  -0.0000   0.3956   0.7467   0.2334   1.3952
    6         2       -0.1830  -0.0000   0.1338   0.2681   1.0484   0.7158
    7         2       -0.5900  -0.0000   0.3956   0.7467   1.3952   0.2334

 EXTENT OF ORBITAL MEASURED BY (<R**2>)

 Orbital#   Group#     <X**2>   <Y**2>   <Z**2>   <R**2> Sqrt<R**2>

    4         2        0.1518   0.0900   0.1520   0.3938   0.6275
    5         2        0.2588   0.1460   0.2055   0.6103   0.7812
    6         2        0.1518   0.0900   0.1520   0.3938   0.6275
    7         2        0.2588   0.1460   0.2055   0.6103   0.7812

 WORDS OF DYNAMIC MEMORY USED IN VB2000 CODE ONLY:       71125
 NOTE THAT THIS IS IN ADDITION TO MEMORY USED BY GAMESS
 PRINTED NEAR END OF OUTPUT. ADD THE TWO AMOUNTS TO GIVE
 THE TOTAL MEMORY USED BY THE JOB

 STATISTICS OF CPU TIMES (SECONDS)
 CPU TIME FOR INITIALIZATION        0.020
 CPU TIME FOR MACROITERATION        0.710
 TOTAL CPU TIME                     0.730

 STEP CPU TIME =     0.78 TOTAL CPU TIME =        0.8 (    0.0 MIN)
 TOTAL WALL CLOCK TIME=        0.8 SECONDS, CPU UTILIZATION IS  98.78%

 **************************************************************
 *                                                            *
 *                  ENDING GAMESS(US) VB2000                  *
 *                                                            *
 *  Properties for individual molecular orbitals are correct  *
 *   only for VB modified orbitals in a Hartree-Fock group.   *
 *                                                            *
 **************************************************************

     ----------------------------------
     PROPERTIES FOR THE VB WAVEFUNCTION
     ----------------------------------

          -----------------
          ENERGY COMPONENTS
          -----------------

         WAVEFUNCTION NORMALIZATION =       1.0000000000

                ONE ELECTRON ENERGY =    -122.7874209651
                TWO ELECTRON ENERGY =      37.7111721697
           NUCLEAR REPULSION ENERGY =       9.0093603723
                                      ------------------
                       TOTAL ENERGY =     -76.0668884231

 ELECTRON-ELECTRON POTENTIAL ENERGY =      37.7111721697
  NUCLEUS-ELECTRON POTENTIAL ENERGY =    -198.8144110067
   NUCLEUS-NUCLEUS POTENTIAL ENERGY =       9.0093603723
                                      ------------------
             TOTAL POTENTIAL ENERGY =    -152.0938784647
               TOTAL KINETIC ENERGY =      76.0269900415
                 VIRIAL RATIO (V/T) =       2.0005247923

          ---------------------------------------
          MULLIKEN AND LOWDIN POPULATION ANALYSES
          ---------------------------------------

     ATOMIC MULLIKEN POPULATION IN EACH MOLECULAR ORBITAL

                      1          2          3          4          5

                  2.000000   2.000000   2.000000   2.000000   2.000000

    1             2.000830   1.982770   1.959881   1.724906   1.959085
    2            -0.000415   0.008615   0.020060   0.137547   0.020457
    3            -0.000415   0.008615   0.020060   0.137547   0.020457

               ----- POPULATIONS IN EACH AO -----
                             MULLIKEN      LOWDIN
              1  O  1  S      2.00174     1.90301
              2  O  1  S      0.83591     0.59585
              3  O  1  S      0.83312     0.50248
              4  O  1  X      0.76535     0.68821
              5  O  1  Y      1.12554     1.08498
              6  O  1  Z      0.93013     0.88194
              7  O  1  X      0.35159     0.51546
              8  O  1  Y      0.83340     0.79777
              9  O  1  Z      0.61738     0.69328
             10  O  1 XX      0.00094     0.18654
             11  O  1 YY      0.00092     0.17586
             12  O  1 ZZ      0.00000     0.17677
             13  O  1 XY      0.00787     0.00000
             14  O  1 XZ      0.00094     0.01653
             15  O  1 YZ      0.00000     0.00023
             16  H  2  S      0.69408     0.55650
             17  H  2  S      0.07593     0.16741
             18  H  2  X      0.03518     0.05681
             19  H  2  Y      0.02006     0.05851
             20  H  2  Z      0.02235     0.05131
             21  H  3  S      0.69408     0.55650
             22  H  3  S      0.07593     0.16741
             23  H  3  X      0.03518     0.05681
             24  H  3  Y      0.02006     0.05851
             25  H  3  Z      0.02235     0.05131

          ----- MULLIKEN ATOMIC OVERLAP POPULATIONS -----
          (OFF-DIAGONAL ELEMENTS NEED TO BE MULTIPLIED BY 2)

             1           2           3

    1    7.6264582
    2    0.3391817   0.5388193
    3    0.3391817  -0.0304119   0.5388193

          TOTAL MULLIKEN AND LOWDIN ATOMIC POPULATIONS
       ATOM         MULL.POP.    CHARGE          LOW.POP.     CHARGE
    1 OXYGEN        8.304822   -0.304822         8.218916   -0.218916
    2 HYDROGEN      0.847589    0.152411         0.890542    0.109458
    3 HYDROGEN      0.847589    0.152411         0.890542    0.109458

          MULLIKEN SPHERICAL HARMONIC POPULATIONS
       ATOM           S       P       D      F      G      H      I    TOTAL
    1 OXYGEN        3.67    4.62    0.01   0.00   0.00   0.00   0.00    8.30
    2 HYDROGEN      0.77    0.08    0.00   0.00   0.00   0.00   0.00    0.85
    3 HYDROGEN      0.77    0.08    0.00   0.00   0.00   0.00   0.00    0.85

          -------------------------------
          BOND ORDER AND VALENCE ANALYSIS     BOND ORDER THRESHOLD=0.050
          -------------------------------

                   BOND                       BOND                       BOND
  ATOM PAIR DIST  ORDER      ATOM PAIR DIST  ORDER      ATOM PAIR DIST  ORDER
    1   2  0.976  0.976        1   3  0.976  0.976

                       TOTAL       BONDED        FREE
      ATOM            VALENCE     VALENCE     VALENCE
    1 OXYGEN            2.039       1.952       0.087
    2 HYDROGEN          1.025       0.984       0.040
    3 HYDROGEN          1.025       0.984       0.040

          ---------------------
          ELECTROSTATIC MOMENTS
          ---------------------

 POINT   1           X           Y           Z (BOHR)    CHARGE
                 0.000000    0.000000    0.117499        0.00 (A.U.)
         DX          DY          DZ         /D/  (DEBYE)
    -0.000000    0.000000    1.866386    1.866386
 ...... END OF PROPERTY EVALUATION ......
 STEP CPU TIME =     0.00 TOTAL CPU TIME =        0.8 (    0.0 MIN)
 TOTAL WALL CLOCK TIME=        0.8 SECONDS, CPU UTILIZATION IS  98.78%
               580000  WORDS OF DYNAMIC MEMORY USED
 EXECUTION OF GAMESS TERMINATED NORMALLY Mon Oct 14 07:28:38 2013
 DDI: 263624 bytes (0.3 MB / 0 MWords) used by master data server.

 ----------------------------------------
 CPU timing information for all processes
 ========================================
 0: 0.784 + 0.32 = 0.816
 ----------------------------------------
 ddikick.x: exited gracefully.
unset echo
----- accounting info -----
Files used on the master node titch-64 were:
-rw-r--r-- 1 brian brian    1417 Oct 14 07:28 /scr/brian/exam-vb11.F05
-rw-rw-r-- 1 brian brian  360032 Oct 14 07:28 /scr/brian/exam-vb11.F08
-rw-rw-r-- 1 brian brian 1505120 Oct 14 07:28 /scr/brian/exam-vb11.F10
-rw-rw-r-- 1 brian brian      88 Oct 14 07:28 /scr/brian/exam-vb11.TEMP02
-rw-rw-r-- 1 brian brian      88 Oct 14 07:28 /scr/brian/exam-vb11.TEMP03
-rw-rw-r-- 1 brian brian     448 Oct 14 07:28 /scr/brian/exam-vb11.TEMP04
-rw-rw-r-- 1 brian brian   15093 Oct 14 07:28 /scr/brian/exam-vb11.TEMP-MOD
-rw-rw-r-- 1 brian brian    1620 Oct 14 07:28 /scr/brian/exam-vb11.V80
-rw-rw-r-- 1 brian brian       0 Oct 14 07:28 /scr/brian/exam-vb11.V82
-rw-rw-r-- 1 brian brian       0 Oct 14 07:28 /scr/brian/exam-vb11.V83
-rw-rw-r-- 1 brian brian    5580 Oct 14 07:28 /scr/brian/exam-vb11.V84
-rw-rw-r-- 1 brian brian  326232 Oct 14 07:28 /scr/brian/exam-vb11.V85
-rw-rw-r-- 1 brian brian  196592 Oct 14 07:28 /scr/brian/exam-vb11.V86
-rw-rw-r-- 1 brian brian  196592 Oct 14 07:28 /scr/brian/exam-vb11.V87
-rw-rw-r-- 1 brian brian     736 Oct 14 07:28 /scr/brian/exam-vb11.V88
-rw-rw-r-- 1 brian brian       0 Oct 14 07:28 /scr/brian/exam-vb11.V89
ls: No match.
ls: No match.
ls: No match.
Mon Oct 14 07:28:41 EST 2013
0.068u 0.004s 0:03.94 1.5%	0+0k 8+24io 0pf+0w
