----- GAMESS execution script 'rungms' -----
This job is running on host titch-64
under operating system Linux at Mon Oct 14 07:28:52 EST 2013
Available scratch disk space (Kbyte units) at beginning of the job is
Filesystem     1K-blocks      Used Available Use% Mounted on
/dev/sda1      945022356 138264716 758753288  16% /
GAMESS temporary binary files will be written to /scr/brian
GAMESS supplementary output files will be written to /home/brian/scr
Copying input file exam-vb13.inp to your run's scratch directory...
cp tests/exam-vb13.inp /scr/brian/exam-vb13.F05
unset echo
/home/brian/qchem/gamess/ddikick.x /home/brian/qchem/gamess/gamess.01.x exam-vb13 -ddi 1 1 titch-64 -scr /scr/brian

 Distributed Data Interface kickoff program.
 Initiating 1 compute processes on 1 nodes to run the following command:
 /home/brian/qchem/gamess/gamess.01.x exam-vb13 

          ******************************************************
          *         GAMESS VERSION =  1 MAY 2013 (R1)          *
          *             FROM IOWA STATE UNIVERSITY             *
          * M.W.SCHMIDT, K.K.BALDRIDGE, J.A.BOATZ, S.T.ELBERT, *
          *   M.S.GORDON, J.H.JENSEN, S.KOSEKI, N.MATSUNAGA,   *
          *          K.A.NGUYEN, S.J.SU, T.L.WINDUS,           *
          *       TOGETHER WITH M.DUPUIS, J.A.MONTGOMERY       *
          *         J.COMPUT.CHEM.  14, 1347-1363(1993)        *
          **************** 64 BIT LINUX VERSION ****************

  SINCE 1993, STUDENTS AND POSTDOCS WORKING AT IOWA STATE UNIVERSITY
  AND ALSO IN THEIR VARIOUS JOBS AFTER LEAVING ISU HAVE MADE IMPORTANT
  CONTRIBUTIONS TO THE CODE:
     IVANA ADAMOVIC, CHRISTINE AIKENS, YURI ALEXEEV, POOJA ARORA,
     ANDREY ASADCHEV, ROB BELL, PRADIPTA BANDYOPADHYAY, JONATHAN BENTZ,
     BRETT BODE, GALINA CHABAN, WEI CHEN, CHEOL HO CHOI, PAUL DAY,
     ALBERT DEFUSCO, TIM DUDLEY, DMITRI FEDOROV, GRAHAM FLETCHER,
     MARK FREITAG, KURT GLAESEMANN, DAN KEMP, GRANT MERRILL,
     NORIYUKI MINEZAWA, JONATHAN MULLIN, TAKESHI NAGATA,
     SEAN NEDD, HEATHER NETZLOFF, BOSILJKA NJEGIC, RYAN OLSON, MIKE PAK,
     JIM SHOEMAKER, LYUDMILA SLIPCHENKO, SAROM SOK, JIE SONG,
     TETSUYA TAKETSUGU, SIMON WEBB, SOOHAENG YOO, FEDERICO ZAHARIEV

  ADDITIONAL CODE HAS BEEN PROVIDED BY COLLABORATORS IN OTHER GROUPS:
     IOWA STATE UNIVERSITY:
          JOE IVANIC, LAIMUTIS BYTAUTAS, KLAUS RUEDENBERG
     UNIVERSITY OF TOKYO: KIMIHIKO HIRAO, TAKAHITO NAKAJIMA,
          TAKAO TSUNEDA, MUNEAKI KAMIYA, SUSUMU YANAGISAWA,
          KIYOSHI YAGI, MAHITO CHIBA, SEIKEN TOKURA, NAOAKI KAWAKAMI
     UNIVERSITY OF AARHUS: FRANK JENSEN
     UNIVERSITY OF IOWA: VISVALDAS KAIRYS, HUI LI
     NATIONAL INST. OF STANDARDS AND TECHNOLOGY: WALT STEVENS, DAVID GARMER
     UNIVERSITY OF PISA: BENEDETTA MENNUCCI, JACOPO TOMASI
     UNIVERSITY OF MEMPHIS: HENRY KURTZ, PRAKASHAN KORAMBATH
     UNIVERSITY OF ALBERTA: TOBY ZENG, MARIUSZ KLOBUKOWSKI
     UNIVERSITY OF NEW ENGLAND: MARK SPACKMAN
     MIE UNIVERSITY: HIROAKI UMEDA
     MICHIGAN STATE UNIVERSITY:
          KAROL KOWALSKI, MARTA WLOCH, JEFFREY GOUR, JESSE LUTZ,
          WEI LI, PIOTR PIECUCH
     UNIVERSITY OF SILESIA: MONIKA MUSIAL, STANISLAW KUCHARSKI
     FACULTES UNIVERSITAIRES NOTRE-DAME DE LA PAIX:
          OLIVIER QUINET, BENOIT CHAMPAGNE
     UNIVERSITY OF CALIFORNIA - SANTA BARBARA: BERNARD KIRTMAN
     INSTITUTE FOR MOLECULAR SCIENCE:
          KAZUYA ISHIMURA, MICHIO KATOUDA, AND SHIGERU NAGASE
     UNIVERSITY OF NOTRE DAME: DAN CHIPMAN
     KYUSHU UNIVERSITY:
          HARUYUKI NAKANO,
          FENG LONG GU, JACEK KORCHOWIEC, MARCIN MAKOWSKI, AND YURIKO AOKI,
          HIROTOSHI MORI AND EISAKU MIYOSHI
     PENNSYLVANIA STATE UNIVERSITY:
          TZVETELIN IORDANOV, CHET SWALINA, JONATHAN SKONE,
          SHARON HAMMES-SCHIFFER
     WASEDA UNIVERSITY:
          MASATO KOBAYASHI, TOMOKO AKAMA, TSUGUKI TOUMA,
          TAKESHI YOSHIKAWA, YASUHIRO IKABATA, HIROMI NAKAI
     NANJING UNIVERSITY: SHUHUA LI
     UNIVERSITY OF NEBRASKA:
          PEIFENG SU, DEJUN SI, NANDUN THELLAMUREGE, YALI WANG, HUI LI
     UNIVERSITY OF ZURICH:
          ROBERTO PEVERATI, KIM BALDRIDGE
     N. COPERNICUS UNIVERSITY AND JACKSON STATE UNIVERSITY:
          MARIA BARYSZ

 EXECUTION OF GAMESS BEGUN Mon Oct 14 07:28:52 2013

            ECHO OF THE FIRST FEW INPUT CARDS -
 INPUT CARD>! GAMESS/VB2000 Test 13.                                                        
 INPUT CARD>! This run illustrates calculating the frequencies using the                    
 INPUT CARD>! geometry determined by run 12. Note the use of the $FORCE                     
 INPUT CARD>! group which is required.                                                      
 INPUT CARD>!                                                                               
 INPUT CARD>! The final VB energy is:                                                       
 INPUT CARD>!                                                                               
 INPUT CARD>! ENERGY AND DIFF OF MACROITER   15 =    -76.02933220      0.00000000           
 INPUT CARD>!                                                                               
 INPUT CARD>!                  1           2           3           4           5            
 INPUT CARD>!  FREQUENCY:     0.61        0.58        0.33       27.04       31.25          
 INPUT CARD>!                  6           7           8           9                        
 INPUT CARD>!  FREQUENCY:    34.58     1717.27     3587.64     3734.66                      
 INPUT CARD>!                                                                               
 INPUT CARD>! Note that these values, particularly the 6 "Zero" values are fairly           
 INPUT CARD>! sensitive to choice of compiler and system.                                   
 INPUT CARD>!                                                                               
 INPUT CARD> $CONTRL SCFTYP=RHF VBTYP=VB2000 COORD=UNIQUE                                   
 INPUT CARD>   RUNTYP=HESSIAN INTTYP=HONDO                                                  
 INPUT CARD> $END                                                                           
 INPUT CARD> $FORCE METHOD=FULLNUM $END                                                     
 INPUT CARD> $STATPT OPTTOL=0.00001 $END                                                    
 INPUT CARD> $SYSTEM TIMLIM=200 MEMORY=2000000 $END                                         
 INPUT CARD> $BASIS  GBASIS=N31 NGAUSS=6 $END                                               
 INPUT CARD> $GUESS  GUESS=HUCKEL $END                                                      
 INPUT CARD> $DATA                                                                          
 INPUT CARD>Water 6-31G VB2000 Test                                                         
 INPUT CARD>C1                                                                              
 INPUT CARD>O     8.0   0.0358545316   0.0000000000   0.0300801837                          
 INPUT CARD>H     1.0  -0.0325918777   0.0000000000   1.0024403184                          
 INPUT CARD>H     1.0   0.9815450987   0.0000000000  -0.2061686802                          
 INPUT CARD> $END                                                                           
 INPUT CARD> $VB2000                                                                        
 INPUT CARD>#! VB(4)/6-31G PRINTALL                                                         
 INPUT CARD>                                                                                
 INPUT CARD>Water 6-31G VB2000 Test                                                         
 INPUT CARD>                                                                                
 INPUT CARD> $CMAXCUT                                                                       
 INPUT CARD> 0.05                                                                           
 INPUT CARD>                                                                                
 INPUT CARD> $END                                                                           
 INPUT CARD>                                                                                
    2000000 WORDS OF MEMORY AVAILABLE

     BASIS OPTIONS
     -------------
     GBASIS=N31          IGAUSS=       6      POLAR=NONE    
     NDFUNC=       0     NFFUNC=       0     DIFFSP=       F
     NPFUNC=       0      DIFFS=       F     BASNAM=        


     RUN TITLE
     ---------
 Water 6-31G VB2000 Test                                                         

 THE POINT GROUP OF THE MOLECULE IS C1      
 THE ORDER OF THE PRINCIPAL AXIS IS     0

 ATOM      ATOMIC                      COORDINATES (BOHR)
           CHARGE         X                   Y                   Z
 O           8.0     0.0677552401        0.0000000000        0.0568433049
 H           1.0    -0.0615897183        0.0000000000        1.8943375208
 H           1.0     1.8548512811        0.0000000000       -0.3896023128

          INTERNUCLEAR DISTANCES (ANGS.)
          ------------------------------

                1 O          2 H          3 H     

   1 O       0.0000000    0.9747662 *  0.9747534 *
   2 H       0.9747662 *  0.0000000    1.5777229 *
   3 H       0.9747534 *  1.5777229 *  0.0000000  

  * ... LESS THAN  3.000


     ATOMIC BASIS SET
     ----------------
 THE CONTRACTED PRIMITIVE FUNCTIONS HAVE BEEN UNNORMALIZED
 THE CONTRACTED BASIS FUNCTIONS ARE NOW NORMALIZED TO UNITY

  SHELL TYPE  PRIMITIVE        EXPONENT          CONTRACTION COEFFICIENT(S)

 O         

      1   S       1          5484.6716600    0.001831074430
      1   S       2           825.2349460    0.013950172200
      1   S       3           188.0469580    0.068445078098
      1   S       4            52.9645000    0.232714335992
      1   S       5            16.8975704    0.470192897984
      1   S       6             5.7996353    0.358520852987

      2   L       7            15.5396162   -0.110777549525    0.070874268231
      2   L       8             3.5999336   -0.148026262701    0.339752839147
      2   L       9             1.0137618    1.130767015354    0.727158577316

      3   L      10             0.2700058    1.000000000000    1.000000000000

 H         

      4   S      11            18.7311370    0.033494604338
      4   S      12             2.8253944    0.234726953484
      4   S      13             0.6401217    0.813757326146

      5   S      14             0.1612778    1.000000000000

 H         

      6   S      15            18.7311370    0.033494604338
      6   S      16             2.8253944    0.234726953484
      6   S      17             0.6401217    0.813757326146

      7   S      18             0.1612778    1.000000000000

 TOTAL NUMBER OF BASIS SET SHELLS             =    7
 NUMBER OF CARTESIAN GAUSSIAN BASIS FUNCTIONS =   13
 NUMBER OF ELECTRONS                          =   10
 CHARGE OF MOLECULE                           =    0
 SPIN MULTIPLICITY                            =    1
 NUMBER OF OCCUPIED ORBITALS (ALPHA)          =    5
 NUMBER OF OCCUPIED ORBITALS (BETA )          =    5
 TOTAL NUMBER OF ATOMS                        =    3
 THE NUCLEAR REPULSION ENERGY IS        9.0214799809

     $CONTRL OPTIONS
     ---------------
 SCFTYP=RHF          RUNTYP=HESSIAN      EXETYP=RUN     
 MPLEVL=       0     CITYP =NONE         CCTYP =NONE         VBTYP =VB2000  
 DFTTYP=NONE         TDDFT =NONE    
 MULT  =       1     ICHARG=       0     NZVAR =       0     COORD =UNIQUE  
 PP    =NONE         RELWFN=NONE         LOCAL =NONE         NUMGRD=       F
 ISPHER=      -1     NOSYM =       0     MAXIT =      30     UNITS =ANGS    
 PLTORB=       F     MOLPLT=       F     AIMPAC=       F     FRIEND=        
 NPRINT=       7     IREST =       0     GEOM  =INPUT   
 NORMF =       0     NORMP =       0     ITOL  =      20     ICUT  =       9
 INTTYP=BEST         GRDTYP=BEST         QMTTOL= 1.0E-06

     $SYSTEM OPTIONS
     ---------------
  REPLICATED MEMORY=     2000000 WORDS (ON EVERY NODE).
 DISTRIBUTED MEMDDI=           0 MILLION WORDS IN AGGREGATE,
 MEMDDI DISTRIBUTED OVER   1 PROCESSORS IS           0 WORDS/PROCESSOR.
 TOTAL MEMORY REQUESTED ON EACH PROCESSOR=     2000000 WORDS.
 TIMLIM=         200.00 MINUTES, OR       0.1 DAYS.
 PARALL= F  BALTYP=  DLB     KDIAG=    0  COREFL= F
 MXSEQ2=     300 MXSEQ3=     150

          ----------------
          PROPERTIES INPUT
          ----------------

     MOMENTS            FIELD           POTENTIAL          DENSITY
 IEMOM =       1   IEFLD =       0   IEPOT =       0   IEDEN =       0
 WHERE =COMASS     WHERE =NUCLEI     WHERE =NUCLEI     WHERE =NUCLEI  
 OUTPUT=BOTH       OUTPUT=BOTH       OUTPUT=BOTH       OUTPUT=BOTH    
 IEMINT=       0   IEFINT=       0                     IEDINT=       0
                                                       MORB  =       0
          EXTRAPOLATION IN EFFECT
          SOSCF IN EFFECT
 ORBITAL PRINTING OPTION: NPREO=     1    13     2     1

     -------------------------------
     INTEGRAL TRANSFORMATION OPTIONS
     -------------------------------
     NWORD  =            0
     CUTOFF = 1.0E-09     MPTRAN =       0
     DIRTRF =       F     AOINTS =DUP     

          ----------------------
          INTEGRAL INPUT OPTIONS
          ----------------------
 NOPK  =       1 NORDER=       0 SCHWRZ=       F

     ------------------------------------------
     THE POINT GROUP IS C1 , NAXIS= 0, ORDER= 1
     ------------------------------------------

     DIMENSIONS OF THE SYMMETRY SUBSPACES ARE
 A   =   13

 ..... DONE SETTING UP THE RUN .....
 STEP CPU TIME =     0.00 TOTAL CPU TIME =        0.0 (    0.0 MIN)
 TOTAL WALL CLOCK TIME=        0.0 SECONDS, CPU UTILIZATION IS   0.00%

     ---------------------------------
     HESSIAN MATRIX CONTROL PARAMETERS
     ---------------------------------
     METHOD=FULLNUM    NVIB  =       2   VIBSIZ= 0.01000
     RDHESS=       F   PURIFY=       F   PRTIFC=       F
     VIBANL=       T   DECOMP=       F   PROJCT=       F
     SCLFAC= 1.00000   PRTSCN=       F   NPRT  =       0
     PULCOR=       F   NPUN  =       0   REDOVB=       T
     THERMOCHEMISTRY WILL BE PRINTED FOR    1 TEMPERATURES:
      298.15000

          ********************
          1 ELECTRON INTEGRALS
          ********************
 ...... END OF ONE-ELECTRON INTEGRALS ......
 STEP CPU TIME =     0.00 TOTAL CPU TIME =        0.0 (    0.0 MIN)
 TOTAL WALL CLOCK TIME=        0.0 SECONDS, CPU UTILIZATION IS   0.00%

          -------------
          GUESS OPTIONS
          -------------
          GUESS =HUCKEL            NORB  =       0          NORDER=       0
          MIX   =       F          PRTMO =       F          PUNMO =       F
          TOLZ  = 1.0E-08          TOLE  = 1.0E-05
          SYMDEN=       F          PURIFY=       F

 INITIAL GUESS ORBITALS GENERATED BY HUCKEL   ROUTINE.
 HUCKEL GUESS REQUIRES      3535 WORDS.

 SYMMETRIES FOR INITIAL GUESS ORBITALS FOLLOW.   BOTH SET(S).
     5 ORBITALS ARE OCCUPIED (    1 CORE ORBITALS).
     2=A        3=A        4=A        5=A        6=A        7=A        8=A   
     9=A       10=A       11=A       12=A       13=A   
 ...... END OF INITIAL ORBITAL SELECTION ......
 STEP CPU TIME =     0.00 TOTAL CPU TIME =        0.0 (    0.0 MIN)
 TOTAL WALL CLOCK TIME=        0.0 SECONDS, CPU UTILIZATION IS   0.00%

                    ----------------------
                    AO INTEGRAL TECHNOLOGY
                    ----------------------
     S,P,L SHELL ROTATED AXIS INTEGRALS, REPROGRAMMED BY
        KAZUYA ISHIMURA (IMS) AND JOSE SIERRA (SYNSTAR).
     S,P,D,L SHELL ROTATED AXIS INTEGRALS PROGRAMMED BY
        KAZUYA ISHIMURA (INSTITUTE FOR MOLECULAR SCIENCE).
     S,P,D,F,G SHELL TO TOTAL QUARTET ANGULAR MOMENTUM SUM 5,
        ERIC PROGRAM BY GRAHAM FLETCHER (ELORET AND NASA ADVANCED
        SUPERCOMPUTING DIVISION, AMES RESEARCH CENTER).
     S,P,D,F,G,L SHELL GENERAL RYS QUADRATURE PROGRAMMED BY
        MICHEL DUPUIS (PACIFIC NORTHWEST NATIONAL LABORATORY).

          --------------------
          2 ELECTRON INTEGRALS
          --------------------

 THE -PK- OPTION IS OFF, THE INTEGRALS ARE NOT IN SUPERMATRIX FORM.
 STORING   15000 INTEGRALS/RECORD ON DISK, USING 12 BYTES/INTEGRAL.
 TWO ELECTRON INTEGRAL EVALUATION REQUIRES   89384 WORDS OF MEMORY.
 II,JST,KST,LST =  1  1  1  1 NREC =         1 INTLOC =    1
 II,JST,KST,LST =  2  1  1  1 NREC =         1 INTLOC =    2
 II,JST,KST,LST =  3  1  1  1 NREC =         1 INTLOC =   34
 II,JST,KST,LST =  4  1  1  1 NREC =         1 INTLOC =  214
 II,JST,KST,LST =  5  1  1  1 NREC =         1 INTLOC =  529
 II,JST,KST,LST =  6  1  1  1 NREC =         1 INTLOC =  960
 II,JST,KST,LST =  7  1  1  1 NREC =         1 INTLOC = 1534
 TOTAL NUMBER OF NONZERO TWO-ELECTRON INTEGRALS =                2280
          1 INTEGRAL RECORDS WERE STORED ON DISK FILE  8.
  ...... END OF TWO-ELECTRON INTEGRALS .....
 STEP CPU TIME =     0.02 TOTAL CPU TIME =        0.0 (    0.0 MIN)
 TOTAL WALL CLOCK TIME=        0.0 SECONDS, CPU UTILIZATION IS  66.67%

          --------------------------
                 RHF SCF CALCULATION
          --------------------------

     NUCLEAR ENERGY =         9.0214799809
     MAXIT =   30     NPUNCH=    2
     EXTRAP=T  DAMP=F  SHIFT=F  RSTRCT=F  DIIS=F  DEM=F  SOSCF=T
     DENSITY MATRIX CONV=  1.00E-05
     SOSCF WILL OPTIMIZE      40 ORBITAL ROTATIONS, SOGTOL=   0.250
     MEMORY REQUIRED FOR RHF ITERS=     31525 WORDS.

 ITER EX DEM     TOTAL ENERGY        E CHANGE  DENSITY CHANGE     ORB. GRAD
   1  0  0      -75.7765009248   -75.7765009248   0.269182130   0.000000000
          ---------------START SECOND ORDER SCF---------------
   2  1  0      -75.9702971671    -0.1937962422   0.067848012   0.057030009
   3  2  0      -75.9826865744    -0.0123894074   0.024007432   0.014219911
   4  3  0      -75.9839557391    -0.0012691647   0.003160825   0.002339117
   5  4  0      -75.9839956086    -0.0000398695   0.002160904   0.001032661
   6  5  0      -75.9840048254    -0.0000092168   0.000421492   0.000332100
   7  6  0      -75.9840051897    -0.0000003643   0.000089331   0.000063816
   8  7  0      -75.9840051983    -0.0000000086   0.000043349   0.000020453
   9  8  0      -75.9840051994    -0.0000000011   0.000003338   0.000001775
  10  9  0      -75.9840051994    -0.0000000000   0.000000863   0.000000277

          -----------------
          DENSITY CONVERGED
          -----------------
     TIME TO FORM FOCK OPERATORS=       0.0 SECONDS (       0.0 SEC/ITER)
     TIME TO SOLVE SCF EQUATIONS=       0.0 SECONDS (       0.0 SEC/ITER)

 FINAL RHF ENERGY IS      -75.9840051994 AFTER  10 ITERATIONS

          ------------
          EIGENVECTORS
          ------------

                      1          2          3          4          5
                  -20.5611    -1.3433    -0.7063    -0.5512    -0.4986
                     A          A          A          A          A   
    1  O  1  S    0.995793  -0.213281  -0.000002   0.072809   0.000000
    2  O  1  S    0.021884   0.470496   0.000003  -0.174855   0.000000
    3  O  1  X    0.001555   0.079370  -0.322419   0.423822   0.000000
    4  O  1  Y   -0.000000   0.000000   0.000000  -0.000000   0.641463
    5  O  1  Z    0.001305   0.066596   0.384234   0.355634   0.000000
    6  O  1  S   -0.007917   0.487432   0.000009  -0.293356   0.000000
    7  O  1  X   -0.001425   0.045604  -0.175106   0.315022   0.000000
    8  O  1  Y   -0.000000   0.000000   0.000000  -0.000000   0.510171
    9  O  1  Z   -0.001196   0.038266   0.208680   0.264340   0.000000
   10  H  2  S    0.000126   0.135135   0.260356   0.140310   0.000000
   11  H  2  S    0.001930  -0.007257   0.123691   0.083376   0.000000
   12  H  3  S    0.000126   0.135140  -0.260360   0.140306   0.000000
   13  H  3  S    0.001930  -0.007258  -0.123690   0.083371   0.000000

                      6          7          8          9         10
                    0.2002     0.2958     1.0714     1.1474     1.1659
                     A          A          A          A          A   
    1  O  1  S   -0.086024   0.000002   0.000004   0.063664   0.000000
    2  O  1  S    0.107992  -0.000002  -0.000025  -0.312468   0.000000
    3  O  1  X    0.177535  -0.219174   0.095738  -0.340406   0.000000
    4  O  1  Y    0.000000   0.000000   0.000000  -0.000000  -0.961546
    5  O  1  Z    0.148981   0.261197  -0.114155  -0.285639   0.000000
    6  O  1  S    1.158779  -0.000036   0.000038   0.162170   0.000000
    7  O  1  X    0.356268  -0.530830   0.439594  -0.053192   0.000000
    8  O  1  Y    0.000000   0.000000   0.000000  -0.000000   1.037194
    9  O  1  Z    0.298964   0.632604  -0.523866  -0.044511   0.000000
   10  H  2  S   -0.066071  -0.042757   0.984888   0.944276   0.000000
   11  H  2  S   -0.981616  -1.344080  -0.527818  -0.558282   0.000000
   12  H  3  S   -0.066066   0.042755  -0.984753   0.944434   0.000000
   13  H  3  S   -0.981584   1.344131   0.527709  -0.558314   0.000000

                     11         12         13
                    1.2119     1.3784     1.6839
                     A          A          A   
    1  O  1  S   -0.051295  -0.000002   0.058805
    2  O  1  S    0.341905   0.000013  -1.679976
    3  O  1  X   -0.668580   0.661931  -0.157241
    4  O  1  Y   -0.000000  -0.000000   0.000000
    5  O  1  Z   -0.560995  -0.788856  -0.131945
    6  O  1  S   -0.020649  -0.000019   2.690014
    7  O  1  X    0.906829  -1.019555   0.608836
    8  O  1  Y   -0.000000  -0.000000   0.000000
    9  O  1  Z    0.760904   1.215072   0.510867
   10  H  2  S   -0.293839   0.031066  -0.415040
   11  H  2  S   -0.058891  -0.860015  -0.603508
   12  H  3  S   -0.293825  -0.031109  -0.415034
   13  H  3  S   -0.058923   0.860046  -0.603537
 ...... END OF RHF CALCULATION ......
 STEP CPU TIME =     0.00 TOTAL CPU TIME =        0.0 (    0.0 MIN)
 TOTAL WALL CLOCK TIME=        0.0 SECONDS, CPU UTILIZATION IS  66.67%

     ----------------------------------------------------------------
     PROPERTY VALUES FOR THE RHF   SELF-CONSISTENT FIELD WAVEFUNCTION
     ----------------------------------------------------------------

          -----------------
          ENERGY COMPONENTS
          -----------------

         WAVEFUNCTION NORMALIZATION =       1.0000000000

                ONE ELECTRON ENERGY =    -122.6900084811
                TWO ELECTRON ENERGY =      37.6845233008
           NUCLEAR REPULSION ENERGY =       9.0214799809
                                      ------------------
                       TOTAL ENERGY =     -75.9840051994

 ELECTRON-ELECTRON POTENTIAL ENERGY =      37.6845233008
  NUCLEUS-ELECTRON POTENTIAL ENERGY =    -198.6117153323
   NUCLEUS-NUCLEUS POTENTIAL ENERGY =       9.0214799809
                                      ------------------
             TOTAL POTENTIAL ENERGY =    -151.9057120505
               TOTAL KINETIC ENERGY =      75.9217068511
                 VIRIAL RATIO (V/T) =       2.0008205604

  ...... PI ENERGY ANALYSIS ......

 ENERGY ANALYSIS:
            FOCK ENERGY=    -47.3209602295
          BARE H ENERGY=   -122.6900084811
     ELECTRONIC ENERGY =    -85.0054843553
         KINETIC ENERGY=     75.9217068511
          N-N REPULSION=      9.0214799809
           TOTAL ENERGY=    -75.9840043744
        SIGMA PART(1+2)=    -77.4228296040
               (K,V1,2)=     71.3548928757   -179.8768164885     31.0990940088
           PI PART(1+2)=     -7.5826547513
               (K,V1,2)=      4.5668139755    -18.7348988437      6.5854301170
  SIGMA SKELETON, ERROR=    -68.4013496231     -0.0000000000
             MIXED PART= 0.00000E+00 0.00000E+00 0.00000E+00 0.00000E+00
 ...... END OF PI ENERGY ANALYSIS ......

          ---------------------------------------
          MULLIKEN AND LOWDIN POPULATION ANALYSES
          ---------------------------------------

     ATOMIC MULLIKEN POPULATION IN EACH MOLECULAR ORBITAL

                      1          2          3          4          5

                  2.000000   2.000000   2.000000   2.000000   2.000000

    1             1.999419   1.758694   1.258794   1.788535   2.000000
    2             0.000290   0.120649   0.370602   0.105737   0.000000
    3             0.000290   0.120657   0.370604   0.105728   0.000000

               ----- POPULATIONS IN EACH AO -----
                             MULLIKEN      LOWDIN
              1  O  1  S      1.99773     1.99416
              2  O  1  S      0.90068     0.87863
              3  O  1  X      0.87900     0.82923
              4  O  1  Y      1.15120     1.13081
              5  O  1  Z      0.85184     0.79795
              6  O  1  S      0.99676     0.77180
              7  O  1  X      0.61023     0.67767
              8  O  1  Y      0.84880     0.86919
              9  O  1  Z      0.56920     0.64449
             10  H  2  S      0.49469     0.46775
             11  H  2  S      0.10259     0.23528
             12  H  3  S      0.49470     0.46776
             13  H  3  S      0.10258     0.23528

          ----- MULLIKEN ATOMIC OVERLAP POPULATIONS -----
          (OFF-DIAGONAL ELEMENTS NEED TO BE MULTIPLIED BY 2)

             1           2           3

    1    8.2927657
    2    0.2563382   0.3691026
    3    0.2563386  -0.0281622   0.3691026

          TOTAL MULLIKEN AND LOWDIN ATOMIC POPULATIONS
       ATOM         MULL.POP.    CHARGE          LOW.POP.     CHARGE
    1 O             8.805442   -0.805442         8.593930   -0.593930
    2 H             0.597279    0.402721         0.703034    0.296966
    3 H             0.597279    0.402721         0.703036    0.296964

          -------------------------------
          BOND ORDER AND VALENCE ANALYSIS     BOND ORDER THRESHOLD=0.050
          -------------------------------

                   BOND                       BOND                       BOND
  ATOM PAIR DIST  ORDER      ATOM PAIR DIST  ORDER      ATOM PAIR DIST  ORDER
    1   2  0.975  0.796        1   3  0.975  0.796

                       TOTAL       BONDED        FREE
      ATOM            VALENCE     VALENCE     VALENCE
    1 O                 1.593       1.593      -0.000
    2 H                 0.801       0.801      -0.000
    3 H                 0.801       0.801       0.000

          ---------------------
          ELECTROSTATIC MOMENTS
          ---------------------

 POINT   1           X           Y           Z (BOHR)    CHARGE
                 0.160519    0.000000    0.134683       -0.00 (A.U.)
         DX          DY          DZ         /D/  (DEBYE)
     1.972374    0.000000    1.655033    2.574760
 ...... END OF PROPERTY EVALUATION ......
 STEP CPU TIME =     0.00 TOTAL CPU TIME =        0.0 (    0.0 MIN)
 TOTAL WALL CLOCK TIME=        0.0 SECONDS, CPU UTILIZATION IS  66.67%

 **************************************************************
 *                                                            *
 *         ENTERING VB2000 INTERFACED INTO GAMESS(US)         *
 *                                                            *
 **************************************************************

 **************************************************************
 *                                                            *
 *                        V B 2 0 0 0                         *
 *                                                            *
 *       An ab initio Valence-Bond Program Based on the       *
 *           Generalized Product Function Method and          *
 *                   the Algebrant Algorithm                  *
 *                                                            *
 *                   Version 2.7 October 2013                 *
 *                      GAMESS(US) Version                    *
 *                     Compiler: gfortran                     *
 *                                                            *
 *         Jiabo Li*, Brian Duke** and Roy McWeeny***         *
 *                                                            *
 *        * SciNet Technologies, 9943 Fieldthorn St.,         *
 *                   San Diego, CA 92127, USA                 *
 *                                                            *
 *  ** Monash University Institute of Pharmaceutical Sciences,*
 *     381 Royal Pde, Parkville, Victoria, 3052, Australia    *
 *                                                            *
 * *** Department of Chemistry, University of Pisa,           *
 *     56100 Pisa, Italy                                      *
 *                                                            *
 *  Reference for the software:                               *
 *     Jiabo Li, Brian Duke, and Roy McWeeny, VB2000 Version  *
 *     2.7, SciNet Technologies, San Diego, CA, 2013          *
 *     URL: http://www.scinetec.com or http://www.vb2000.net  *
 *                                                            *
 *  References for the theory:                                *
 *     General:                                               *
 *     Jiabo Li, and Roy McWeeny, "VB2000: Pushing Valence    *
 *     Bond Theory to New Limits", Int. J. Quantum Chem.,     *
 *     89(2002)208-216.                                       *
 *                                                            *
 *     Spin densities:-                                       *
 *     Jiabo Li, Brian J. Duke, Thomas M. Klapoetke, and Roy  *
 *     McWeeny, Spin-Density of Spin-Free Valence Bond Wave   *
 *     Functions and Its Implementation in VB2000. J. Theor.  *
 *     Comp. Chem. 7(2008)853-867.                            *
 *                                                            *
 *     Spin coupled - n electrons in m orbitals:-             *
 *     Peter B. Karadakov, David L. Cooper, Brian J. Duke,    *
 *     and Jiabo Li, Spin-Coupled Theory for N Electrons in   *
 *     M Orbitals Active Spaces,  J. Phys. Chem. A, 116,      *
 *     7238 - 7244, 2012                                      *
 *                                                            *
 *  Copyright (C) 2000-2013 by SciNet Technologies            *
 **************************************************************

 JOB NAME IS exam-vb13                                                       

 VB2000 DIRECTORY IS: /home/brian/qchem/gamess/vb2000                                                 
 MAXIMUM MEMORY USE IS:     6500000
 THIS IS TAKEN AS THE MAXIMUM OF THE UNUSED MEMORY REQUESTED
 IN GAMESS $SYSTEM BLOCK AND MEMORY REQUESTED IN VB2000 DATA

 Input of molecule
 =================
 #! VB(4)/6-31G PRINTALL                                                         
                                                                                 
 Title: Water 6-31G VB2000 Test                                                         

 MACROITERATION CONVERGENCE TOLERANCE TIGHTENED
 TO 10.00**(-8) FOR FREQUENCY RUN.

 Charge =  0 Multiplicity =  1

 ATOM      ATOMIC                      COORDINATES (ANGS)
           CHARGE         X                   Y                   Z
 O           8.0     0.0358545316        0.0000000000        0.0300801837
 H           1.0    -0.0325918777        0.0000000000        1.0024403179
 H           1.0     0.9815450983        0.0000000000       -0.2061686801

 Hartree-Fock Energy from Gamess run =     -75.984005199403

 Basis set size =   13

                    PARAMETER LIMIT VALUES
 Max. no. of atoms                    MAXCEN =   200
 Max. no. of basis functions          MAXBFN =   726
 Max. no. of shells                   MAXSHL =   500
 Max. no. of total primitives         MAXEXP =  1000
 Max. no. of primitives per orbital   MAXPRM =    15
 Max. no. of atoms * no. of orbitals  MAXNAB = 72600
 Increase max basis set size by       NEXTRA =    20
 Max. size for Rumer data             MAXST1 = 33334
 Max. no. of orbitals in group        MAXNOB =   200
 Max. no. of CUBE orbitals            MAXCUB =   100
 Max. no. of groups                   MAXGRP =    99

 BASIS IN $BASIS IS N31      WITH IGAUSS = 6

 VBO LIB IS: /home/brian/qchem/gamess/vb2000/VBOLIB/VBOLIB6-31G                              

 Molecular orbitals by HF method
 ===============================================================================
 MO#                       1         2         3         4         5         6
 E(a.u.)             -20.561    -1.343    -0.706    -0.551    -0.499     0.200
 -------------------------------------------------------------------------------

   1  1  O     s    -0.99579  -0.21328  -0.00000  -0.07281   0.00000  -0.08602
   2  1  O     s    -0.02188   0.47050   0.00000   0.17486   0.00000   0.10799
   3  1  O     x    -0.00155   0.07937  -0.32242  -0.42382   0.00000   0.17753
   4  1  O     y     0.00000   0.00000   0.00000   0.00000   0.64146   0.00000
   5  1  O     z    -0.00130   0.06660   0.38423  -0.35563   0.00000   0.14898
   6  1  O     s     0.00792   0.48743   0.00001   0.29336   0.00000   1.15878
   7  1  O     x     0.00142   0.04560  -0.17511  -0.31502   0.00000   0.35627
   8  1  O     y     0.00000   0.00000   0.00000   0.00000   0.51017   0.00000
   9  1  O     z     0.00120   0.03827   0.20868  -0.26434   0.00000   0.29896
  10  2  H     s    -0.00013   0.13513   0.26036  -0.14031   0.00000  -0.06607
  11  2  H     s    -0.00193  -0.00726   0.12369  -0.08338   0.00000  -0.98162
  12  3  H     s    -0.00013   0.13514  -0.26036  -0.14031   0.00000  -0.06607
  13  3  H     s    -0.00193  -0.00726  -0.12369  -0.08337   0.00000  -0.98158

 MO#                       7         8         9        10
 E(a.u.)               0.296     1.071     1.147     1.166
 -------------------------------------------------------------------------------

   1  1  O     s     0.00000   0.00000  -0.06366   0.00000
   2  1  O     s    -0.00000  -0.00003   0.31247   0.00000
   3  1  O     x    -0.21917   0.09574   0.34041   0.00000
   4  1  O     y     0.00000   0.00000   0.00000  -0.96155
   5  1  O     z     0.26120  -0.11415   0.28564   0.00000
   6  1  O     s    -0.00004   0.00004  -0.16217   0.00000
   7  1  O     x    -0.53083   0.43959   0.05319   0.00000
   8  1  O     y     0.00000   0.00000   0.00000   1.03719
   9  1  O     z     0.63260  -0.52387   0.04451   0.00000
  10  2  H     s    -0.04276   0.98489  -0.94428   0.00000
  11  2  H     s    -1.34408  -0.52782   0.55828   0.00000
  12  3  H     s     0.04275  -0.98475  -0.94443   0.00000
  13  3  H     s     1.34413   0.52771   0.55831   0.00000


 Localized molecular orbitals and the bond labels
 ===============================================================================
 LMO#                      1         2         3         4         5
 E(a.u.)             -20.332    -1.089    -0.499    -0.871    -0.871
 Bond Label            1:(0)     1:(1)     1:(2)    3-1(1)    2-1(1)
 -------------------------------------------------------------------------------

   1  1  O     s    -1.01436  -0.09713   0.00001   0.04485  -0.04485
   2  1  O     s     0.03289   0.44281  -0.00001  -0.16623   0.16622
   3  1  O     x    -0.01139  -0.26329   0.00000  -0.46931   0.01335
   4  1  O     y     0.00001   0.00001   0.64146  -0.00000   0.00000
   5  1  O     z    -0.00956  -0.22093   0.00000   0.06920   0.47419
   6  1  O     s     0.06920   0.53935  -0.00001  -0.11838   0.11838
   7  1  O     x    -0.00725  -0.20479   0.00000  -0.29605   0.04842
   8  1  O     y     0.00001   0.00001   0.51017  -0.00000   0.00000
   9  1  O     z    -0.00608  -0.17184   0.00000   0.00304   0.29209
  10  2  H     s     0.00756  -0.01539  -0.00000   0.04689   0.32131
  11  2  H     s    -0.00615  -0.06672   0.00000   0.05198   0.12295
  12  3  H     s     0.00756  -0.01539  -0.00000  -0.32132  -0.04689
  13  3  H     s    -0.00615  -0.06672   0.00000  -0.12294  -0.05198


 Mulliken population of localized molecular orbitals
 ===============================================================================
 LMO#                      1         2         3         4         5
 E(a.u.)             -20.332    -1.089    -0.499    -0.871    -0.871
 Bond Label            1:(0)     1:(1)     1:(2)    3-1(1)    2-1(1)
 -------------------------------------------------------------------------------

   1         O       1.99958   2.08800   2.00000   1.35893   1.35893
   2         H       0.00021  -0.04400  -0.00000  -0.01642   0.65749
   3         H       0.00021  -0.04400  -0.00000   0.65749  -0.01642


 PARTITIONING OF LMOs INTO GROUPS ($LMOGRP)
 =======================================================================
 LMO#     1  2  3  4  5
 Group#   1  1  1  2  2
 Split    0  0  0  1  1




 Initial guess of orbitals
 ===============================================================================
 ORBITAL#                  1         2         3         4         5         6
 Bond Label            1:(0)     1:(1)     1:(2)    3-1(1)    3-1(1)    2-1(1)
 -------------------------------------------------------------------------------

   1  1  O     s    -1.01436  -0.09713   0.00001   0.06776  -0.01260  -0.06776
   2  1  O     s     0.03289   0.44281  -0.00001  -0.26216   0.07795   0.26215
   3  1  O     x    -0.01139  -0.26329   0.00000  -0.63341  -0.04639  -0.00004
   4  1  O     y     0.00001   0.00001   0.64146  -0.00000  -0.00000   0.00000
   5  1  O     z    -0.00956  -0.22093   0.00000   0.11173  -0.03892   0.64318
   6  1  O     s     0.06920   0.53935  -0.00001  -0.20245   0.09482   0.20246
   7  1  O     x    -0.00725  -0.20479   0.00000  -0.39684  -0.03609   0.05281
   8  1  O     y     0.00001   0.00001   0.51017  -0.00000  -0.00000   0.00000
   9  1  O     z    -0.00608  -0.17184   0.00000   0.01635  -0.03028   0.39365
  10  2  H     s     0.00756  -0.01539  -0.00000   0.00110  -0.00275  -0.00110
  11  2  H     s    -0.00615  -0.06672   0.00000   0.00470  -0.01174  -0.00470
  12  3  H     s     0.00756  -0.01539  -0.00000   0.00110  -0.79323  -0.00110
  13  3  H     s    -0.00615  -0.06672   0.00000   0.00470  -0.31420  -0.00470

 ORBITAL#                  7
 Bond Label           2-1(1)
 -------------------------------------------------------------------------------

   1  1  O     s     0.01260
   2  1  O     s    -0.07795
   3  1  O     x     0.04639
   4  1  O     y     0.00000
   5  1  O     z     0.03892
   6  1  O     s    -0.09482
   7  1  O     x     0.03609
   8  1  O     y     0.00000
   9  1  O     z     0.03028
  10  2  H     s     0.79322
  11  2  H     s     0.31421
  12  3  H     s     0.00275
  13  3  H     s     0.01174


      GENERAL CONTROLS ($GENCTL)
 ====================================
 Number of electron groups       =    2
 Maximum macro-iterations        =   36
 Energy threshold           = 10**(- 8)
 Restart calculation(0/1/2)      =    0
 Group#                     1  2
 Num. of electrons          6  4
 Num. of spins              0  0
 Num. of orbitals           3  4
 Method#                    1  2

 SYMBOLIC VB STRUCTURE(S) OF GROUP  2
 STR. NO.       RUMER PATTERN  
    1           1  2   3  4


 MAP FILE IS: /home/brian/qchem/gamess/vb2000/MAP/MAP0400t                                    

 VB-ORBITAL OPTIMIZATION OF GROUP  2 ...
 GROUP =  2  ITER =  1 CMAX =  0.15000000000000
 GROUP =  2  ITER =  2 CMAX =  0.15193334053422
 GROUP =  2  ITER =  3 CMAX =  0.10212569746642
 GROUP =  2  ITER =  4 CMAX =  0.05208635996162
 GROUP =  2  ITER =  5 CMAX =  0.03351377538261
 GROUP =  2  ITER =  6 CMAX =  0.00949057119148
 GROUP =  2  ITER =  7 CMAX =  0.00342726970261
 GROUP =  2  ITER =  8 CMAX =  0.00131230853579
 GROUP =  2  ITER =  9 CMAX =  0.00051320231277

 ENERGY AND DIFF OF MACROITER    1 =    -76.02170747    -76.02170747

 VB-ORBITAL OPTIMIZATION OF GROUP  2 ...
 GROUP =  2  ITER =  1 CMAX =  0.01805135926290
 GROUP =  2  ITER =  2 CMAX =  0.04256979959819
 GROUP =  2  ITER =  3 CMAX =  0.00342218581869
 GROUP =  2  ITER =  4 CMAX =  0.01464040493646
 GROUP =  2  ITER =  5 CMAX =  0.00197844014114
 GROUP =  2  ITER =  6 CMAX =  0.00003275274569

 ENERGY AND DIFF OF MACROITER    2 =    -76.02760041     -0.00589295

 VB-ORBITAL OPTIMIZATION OF GROUP  2 ...
 GROUP =  2  ITER =  1 CMAX =  0.00749579325990
 GROUP =  2  ITER =  2 CMAX =  0.01873680805131
 GROUP =  2  ITER =  3 CMAX =  0.00278870508593
 GROUP =  2  ITER =  4 CMAX =  0.00008093022329

 ENERGY AND DIFF OF MACROITER    3 =    -76.02924384     -0.00164343

 VB-ORBITAL OPTIMIZATION OF GROUP  2 ...
 GROUP =  2  ITER =  1 CMAX =  0.00174498110566
 GROUP =  2  ITER =  2 CMAX =  0.00249497418298
 GROUP =  2  ITER =  3 CMAX =  0.00014318143411

 ENERGY AND DIFF OF MACROITER    4 =    -76.02932013     -0.00007628

 VB-ORBITAL OPTIMIZATION OF GROUP  2 ...
 GROUP =  2  ITER =  1 CMAX =  0.00059750506712

 ENERGY AND DIFF OF MACROITER    5 =    -76.02934103     -0.00002091

 VB-ORBITAL OPTIMIZATION OF GROUP  2 ...
 GROUP =  2  ITER =  1 CMAX =  0.00064199573697

 ENERGY AND DIFF OF MACROITER    6 =    -76.02934727     -0.00000624

 VB-ORBITAL OPTIMIZATION OF GROUP  2 ...
 GROUP =  2  ITER =  1 CMAX =  0.00051175283026

 ENERGY AND DIFF OF MACROITER    7 =    -76.02934936     -0.00000209

 VB-ORBITAL OPTIMIZATION OF GROUP  2 ...
 GROUP =  2  ITER =  1 CMAX =  0.00039642058659

 ENERGY AND DIFF OF MACROITER    8 =    -76.02935013     -0.00000076

 VB-ORBITAL OPTIMIZATION OF GROUP  2 ...
 GROUP =  2  ITER =  1 CMAX =  0.00027793580883

 ENERGY AND DIFF OF MACROITER    9 =    -76.02935042     -0.00000029

 VB-ORBITAL OPTIMIZATION OF GROUP  2 ...
 GROUP =  2  ITER =  1 CMAX =  0.00020016376307

 ENERGY AND DIFF OF MACROITER   10 =    -76.02935053     -0.00000012

 VB-ORBITAL OPTIMIZATION OF GROUP  2 ...
 GROUP =  2  ITER =  1 CMAX =  0.00014247584261

 ENERGY AND DIFF OF MACROITER   11 =    -76.02935058     -0.00000005

 VB-ORBITAL OPTIMIZATION OF GROUP  2 ...
 GROUP =  2  ITER =  1 CMAX =  0.00011479531446

 ENERGY AND DIFF OF MACROITER   12 =    -76.02935061     -0.00000002

 VB-ORBITAL OPTIMIZATION OF GROUP  2 ...
 GROUP =  2  ITER =  1 CMAX =  0.00009354553570

 ENERGY AND DIFF OF MACROITER   13 =    -76.02935062     -0.00000001

 VB-ORBITAL OPTIMIZATION OF GROUP  2 ...
 GROUP =  2  ITER =  1 CMAX =  0.00007596444867


 OVERLAP MATRIX OF VB ORBITALS FOR GROUP   2

        1      2      3      4
 ===============================
   1 1.0000
   2 0.8044 1.0000
   3-0.2041-0.1090 1.0000
   4-0.1090-0.0192 0.8044 1.0000

 ENERGY AND DIFF OF MACROITER   14 =    -76.02935062     -0.00000000


 MULLIKEN CHARGES ON ATOMS
 -------------------------
  ATOM             CHARGE 

    1            -0.74062
    2             0.37031
    3             0.37031

 -------------------------


 ORBITALS OF EACH ELECTRON GROUP IN AO BASIS: ORBITAL(GROUP)
 ===========================================================================
    Orbital#             1         2         3         4         5         6
      Group#             1         1         1         2         2         2
 ---------------------------------------------------------------------------
  AO# LABELS
   1  1  O     s  -1.00881  -0.14334   0.00001   0.07053   0.02231  -0.07053
   2  1  O     s   0.01310   0.48368  -0.00000  -0.21084   0.00901   0.21084
   3  1  O     x  -0.01417  -0.18695   0.00000  -0.71240  -0.24492   0.09564
   4  1  O     y   0.00001   0.00001   0.64156   0.00000  -0.00000  -0.00000
   5  1  O     z  -0.01189  -0.15686   0.00000   0.02850  -0.00501   0.70653
   6  1  O     s   0.04910   0.57063  -0.00001  -0.08442   0.03691   0.08443
   7  1  O     x  -0.00866  -0.14804   0.00000  -0.31224  -0.27972   0.08323
   8  1  O     y   0.00001   0.00000   0.51007  -0.00000   0.00000   0.00000
   9  1  O     z  -0.00726  -0.12422   0.00000  -0.02946  -0.04539   0.30238
  10  2  H     s   0.00185   0.02177  -0.00000   0.00996   0.03814   0.07987
  11  2  H     s  -0.00607  -0.05940   0.00000   0.01325   0.04739   0.02628
  12  3  H     s   0.00185   0.02177  -0.00000  -0.07987  -0.54580  -0.00996
  13  3  H     s  -0.00607  -0.05940   0.00000  -0.02628  -0.23936  -0.01325

 ===========================================================================
    Orbital#             7
      Group#             2
 ---------------------------------------------------------------------------
  AO# LABELS
   1  1  O     s  -0.02231
   2  1  O     s  -0.00901
   3  1  O     x   0.04746
   4  1  O     y   0.00000
   5  1  O     z   0.24032
   6  1  O     s  -0.03691
   7  1  O     x   0.09327
   8  1  O     y  -0.00000
   9  1  O     z   0.26759
  10  2  H     s   0.54580
  11  2  H     s   0.23937
  12  3  H     s  -0.03814
  13  3  H     s  -0.04739


 CALCULATION OF POSITION AND EXTENT OF VB ORBITALS

 DEFAULT CENTROIDS AND EXTENTS.

 MOLECULAR GEOMETRY ABOUT CENTER OF MASS

  Atom#   ATOMIC NO.     X        Y        Z
    1         8       -0.0491   0.0000  -0.0412
    2         1       -0.1175   0.0000   0.9312
    3         1        0.8966   0.0000  -0.2774

 CENTROIDS OF CHARGE FOR EACH VB GROUP & DISTANCES FROM 3 ATOMS

                                                  DISTANCES FROM ATOMS
 Orbital#   Group#       X        Y        Z        1        2        3
    4         2        0.1745   0.0000  -0.0547   0.2240   1.0282   0.7557
    5         2        0.6709   0.0000  -0.1920   0.7356   1.3723   0.2413
    6         2       -0.0236   0.0000   0.1813   0.2240   0.7557   1.0282
    7         2       -0.0726  -0.0000   0.6941   0.7357   0.2413   1.3723

 EXTENT OF ORBITAL MEASURED BY (<R**2>)

 Orbital#   Group#     <X**2>   <Y**2>   <Z**2>   <R**2> Sqrt<R**2>

    4         2        0.2382   0.0930   0.0942   0.4255   0.6523
    5         2        0.3439   0.1462   0.1561   0.6462   0.8039
    6         2        0.0967   0.0930   0.2357   0.4255   0.6523
    7         2        0.1486   0.1462   0.3514   0.6462   0.8039

 WORDS OF DYNAMIC MEMORY USED IN VB2000 CODE ONLY:        8100
 NOTE THAT THIS IS IN ADDITION TO MEMORY USED BY GAMESS
 PRINTED NEAR END OF OUTPUT. ADD THE TWO AMOUNTS TO GIVE
 THE TOTAL MEMORY USED BY THE JOB

 STATISTICS OF CPU TIMES (SECONDS)
 CPU TIME FOR INITIALIZATION        0.000
 CPU TIME FOR MACROITERATION        0.090
 TOTAL CPU TIME                     0.090

 STEP CPU TIME =     0.15 TOTAL CPU TIME =        0.2 (    0.0 MIN)
 TOTAL WALL CLOCK TIME=        0.2 SECONDS, CPU UTILIZATION IS  89.47%

 **************************************************************
 *                                                            *
 *                  ENDING GAMESS(US) VB2000                  *
 *                                                            *
 *  Properties for individual molecular orbitals are correct  *
 *   only for VB modified orbitals in a Hartree-Fock group.   *
 *                                                            *
 **************************************************************

     ----------------------------------
     PROPERTIES FOR THE VB WAVEFUNCTION
     ----------------------------------

          -----------------
          ENERGY COMPONENTS
          -----------------

         WAVEFUNCTION NORMALIZATION =       1.0000000000

                ONE ELECTRON ENERGY =    -122.6414091721
                TWO ELECTRON ENERGY =      37.5905785704
           NUCLEAR REPULSION ENERGY =       9.0214799809
                                      ------------------
                       TOTAL ENERGY =     -76.0293506208

 ELECTRON-ELECTRON POTENTIAL ENERGY =      37.5905785704
  NUCLEUS-ELECTRON POTENTIAL ENERGY =    -198.6853152477
   NUCLEUS-NUCLEUS POTENTIAL ENERGY =       9.0214799809
                                      ------------------
             TOTAL POTENTIAL ENERGY =    -152.0732566964
               TOTAL KINETIC ENERGY =      76.0439060756
                 VIRIAL RATIO (V/T) =       1.9998085914

          ---------------------------------------
          MULLIKEN AND LOWDIN POPULATION ANALYSES
          ---------------------------------------

     ATOMIC MULLIKEN POPULATION IN EACH MOLECULAR ORBITAL

                      1          2          3          4          5

                  2.000000   2.000000   2.000000   2.000000   2.000000

    1             1.999112   2.079061   2.000000   1.788535   2.000000
    2             0.000444  -0.039530  -0.000000   0.105737   0.000000
    3             0.000444  -0.039531  -0.000000   0.105728   0.000000

               ----- POPULATIONS IN EACH AO -----
                             MULLIKEN      LOWDIN
              1  O  1  S      1.99775     1.99421
              2  O  1  S      0.90737     0.88568
              3  O  1  X      0.87864     0.82729
              4  O  1  Y      1.15143     1.13101
              5  O  1  Z      0.85335     0.79788
              6  O  1  S      0.98909     0.77124
              7  O  1  X      0.57808     0.65779
              8  O  1  Y      0.84857     0.86899
              9  O  1  Z      0.53634     0.62407
             10  H  2  S      0.51565     0.48165
             11  H  2  S      0.11404     0.23927
             12  H  3  S      0.51566     0.48166
             13  H  3  S      0.11404     0.23926

          ----- MULLIKEN ATOMIC OVERLAP POPULATIONS -----
          (OFF-DIAGONAL ELEMENTS NEED TO BE MULTIPLIED BY 2)

             1           2           3

    1    8.2638180
    2    0.2383984   0.4189725
    3    0.2383993  -0.0276783   0.4189707

          TOTAL MULLIKEN AND LOWDIN ATOMIC POPULATIONS
       ATOM         MULL.POP.    CHARGE          LOW.POP.     CHARGE
    1 O             8.740616   -0.740616         8.558156   -0.558156
    2 H             0.629693    0.370307         0.720921    0.279079
    3 H             0.629692    0.370308         0.720923    0.279077

          -------------------------------
          BOND ORDER AND VALENCE ANALYSIS     BOND ORDER THRESHOLD=0.050
          -------------------------------

                   BOND                       BOND                       BOND
  ATOM PAIR DIST  ORDER      ATOM PAIR DIST  ORDER      ATOM PAIR DIST  ORDER
    1   2  0.975  0.781        1   3  0.975  0.781

                       TOTAL       BONDED        FREE
      ATOM            VALENCE     VALENCE     VALENCE
    1 O                 1.661       1.561       0.100
    2 H                 0.824       0.784       0.040
    3 H                 0.824       0.784       0.040

          ---------------------
          ELECTROSTATIC MOMENTS
          ---------------------

 POINT   1           X           Y           Z (BOHR)    CHARGE
                 0.160519    0.000000    0.134683       -0.00 (A.U.)
         DX          DY          DZ         /D/  (DEBYE)
     1.865319    0.000000    1.565196    2.435006
 ...... END OF PROPERTY EVALUATION ......
 STEP CPU TIME =     0.01 TOTAL CPU TIME =        0.2 (    0.0 MIN)
 TOTAL WALL CLOCK TIME=        0.2 SECONDS, CPU UTILIZATION IS  94.74%

 BEGINNING HESSIAN COMPUTATION BY TWICE-DIFFERENCING THE ENERGY...
 THE NUMBER OF ENERGIES AT DISPLACED GEOMETRIES WILL BE       162 AT MOST,
 BUT ADDITIONAL SYMMETRY CONSIDERATIONS TO BE MADE AT EACH
 DISPLACED GEOMETRY MAY REDUCE THIS VALUE SUBSTANTIALLY.
 A CHECK JOB WILL PRINT THE PRECISE NUMBER OF POINTS NEEDED.
 WITHOUT SYMMETRY, THE NUMBER OF ENERGIES NEEDED WOULD BE     234

 ************************************************
 * CALCULATING ENERGY     1 FOR NUMERIC HESSIAN *
 ************************************************
 MOVING ATOM   1 COORDINATE X TO        0.0877552401 A.U.
 ...... END OF ONE-ELECTRON INTEGRALS ......
 STEP CPU TIME =     0.00 TOTAL CPU TIME =        0.2 (    0.0 MIN)
 TOTAL WALL CLOCK TIME=        0.2 SECONDS, CPU UTILIZATION IS  94.74%
 TOTAL NUMBER OF NONZERO TWO-ELECTRON INTEGRALS =                2280
          1 INTEGRAL RECORDS WERE STORED ON DISK FILE  8.
  ...... END OF TWO-ELECTRON INTEGRALS .....
 STEP CPU TIME =     0.00 TOTAL CPU TIME =        0.2 (    0.0 MIN)
 TOTAL WALL CLOCK TIME=        0.2 SECONDS, CPU UTILIZATION IS  94.74%

          --------------------------
                 RHF SCF CALCULATION
          --------------------------
     DENSITY MATRIX CONV=  1.00E-05

 ITER EX DEM     TOTAL ENERGY        E CHANGE  DENSITY CHANGE     ORB. GRAD
   1  0  0      -73.1112080595   -73.1112080595   2.322481470   0.000000000
          ---------------START SECOND ORDER SCF---------------
   2  1  0      -75.8998017292    -2.7885936697   0.191677476   0.123350276
   3  2  0      -75.9670618386    -0.0672601094   0.159021233   0.093555122
   4  3  0      -75.9832299873    -0.0161681487   0.035776864   0.023691035
   5  4  0      -75.9843962103    -0.0011662230   0.002451603   0.002359309
   6  5  0      -75.9844129774    -0.0000167671   0.000418320   0.000247974
   7  6  0      -75.9844132728    -0.0000002954   0.000141688   0.000071004
   8  7  0      -75.9844133129    -0.0000000401   0.000024232   0.000011736
   9  8  0      -75.9844133139    -0.0000000009   0.000005444   0.000002450
  10  9  0      -75.9844133139    -0.0000000000   0.000000746   0.000000419

          -----------------
          DENSITY CONVERGED
          -----------------
     TIME TO FORM FOCK OPERATORS=       0.0 SECONDS (       0.0 SEC/ITER)
     TIME TO SOLVE SCF EQUATIONS=       0.0 SECONDS (       0.0 SEC/ITER)

 FINAL RHF ENERGY IS      -75.9844133139 AFTER  10 ITERATIONS
 ...... END OF RHF CALCULATION ......
 STEP CPU TIME =     0.00 TOTAL CPU TIME =        0.2 (    0.0 MIN)
 TOTAL WALL CLOCK TIME=        0.2 SECONDS, CPU UTILIZATION IS  94.74%

 **************************************************************
 *                                                            *
 *         ENTERING VB2000 INTERFACED INTO GAMESS(US)         *
 *                                                            *
 **************************************************************

 JOB NAME IS exam-vb13                                                       

 VB2000 DIRECTORY IS: /home/brian/qchem/gamess/vb2000                                                 
 MAXIMUM MEMORY USE IS:     6500000
 THIS IS TAKEN AS THE MAXIMUM OF THE UNUSED MEMORY REQUESTED
 IN GAMESS $SYSTEM BLOCK AND MEMORY REQUESTED IN VB2000 DATA

 Input of molecule
 =================
 #! VB(4)/6-31G PRINTALL                                                         
                                                                                 
 Title: Water 6-31G VB2000 Test                                                         

 MACROITERATION CONVERGENCE TOLERANCE TIGHTENED
 TO 10.00**(-8) FOR FREQUENCY RUN.

 Charge =  0 Multiplicity =  1

 ATOM      ATOMIC                      COORDINATES (ANGS)
           CHARGE         X                   Y                   Z
 O           8.0     0.0464380766        0.0000000000        0.0300801837
 H           1.0    -0.0325918777        0.0000000000        1.0024403179
 H           1.0     0.9815450983        0.0000000000       -0.2061686801

 Hartree-Fock Energy from Gamess run =     -75.984413313898

 Basis set size =   13

 BASIS IN $BASIS IS N31      WITH IGAUSS = 6

 VBO LIB IS: /home/brian/qchem/gamess/vb2000/VBOLIB/VBOLIB6-31G                              

 PARTITIONING OF LMOs INTO GROUPS ($LMOGRP)
 =======================================================================
 LMO#     1  2  3  4  5
 Group#   1  1  1  2  2
 Split    0  0  0  1  1




      GENERAL CONTROLS ($GENCTL)
 ====================================
 Number of electron groups       =    2
 Maximum macro-iterations        =   36
 Energy threshold           = 10**(- 8)
 Restart calculation(0/1/2)      =    0
 Group#                     1  2
 Num. of electrons          6  4
 Num. of spins              0  0
 Num. of orbitals           3  4
 Method#                    1  2

 SYMBOLIC VB STRUCTURE(S) OF GROUP  2
 STR. NO.       RUMER PATTERN  
    1           1  2   3  4


 MAP FILE IS: /home/brian/qchem/gamess/vb2000/MAP/MAP0400t                                    

 ENERGY AND DIFF OF MACROITER    1 =    -76.02166306    -76.02166306

 ENERGY AND DIFF OF MACROITER    2 =    -76.02749760     -0.00583454

 ENERGY AND DIFF OF MACROITER    3 =    -76.02914514     -0.00164754

 ENERGY AND DIFF OF MACROITER    4 =    -76.02922095     -0.00007581

 ENERGY AND DIFF OF MACROITER    5 =    -76.02924171     -0.00002077

 ENERGY AND DIFF OF MACROITER    6 =    -76.02924791     -0.00000620

 ENERGY AND DIFF OF MACROITER    7 =    -76.02924998     -0.00000207

 ENERGY AND DIFF OF MACROITER    8 =    -76.02925074     -0.00000076

 ENERGY AND DIFF OF MACROITER    9 =    -76.02925103     -0.00000029

 ENERGY AND DIFF OF MACROITER   10 =    -76.02925115     -0.00000012

 ENERGY AND DIFF OF MACROITER   11 =    -76.02925120     -0.00000005

 ENERGY AND DIFF OF MACROITER   12 =    -76.02925122     -0.00000002

 ENERGY AND DIFF OF MACROITER   13 =    -76.02925123     -0.00000001

 ENERGY AND DIFF OF MACROITER   14 =    -76.02925124     -0.00000001


 OVERLAP MATRIX OF VB ORBITALS FOR GROUP   2

        1      2      3      4
 ===============================
   1 1.0000
   2 0.8083 1.0000
   3 0.2065 0.1101 1.0000
   4 0.1093 0.0191 0.8044 1.0000

 ENERGY AND DIFF OF MACROITER   15 =    -76.02925124     -0.00000000


 MULLIKEN CHARGES ON ATOMS
 -------------------------
  ATOM             CHARGE 

    1            -0.74309
    2             0.37126
    3             0.37183

 -------------------------


 ORBITALS OF EACH ELECTRON GROUP IN AO BASIS: ORBITAL(GROUP)
 ===========================================================================
    Orbital#             1         2         3         4         5         6
      Group#             1         1         1         2         2         2
 ---------------------------------------------------------------------------
  AO# LABELS
   1  1  O     s   1.00879  -0.14232  -0.00001  -0.07257  -0.02418  -0.07169
   2  1  O     s  -0.01307   0.48182  -0.00000   0.21803  -0.00646   0.21381
   3  1  O     x   0.01449  -0.19115   0.00000   0.71202   0.24695   0.09215
   4  1  O     y   0.00001   0.00001   0.64129   0.00000   0.00000   0.00000
   5  1  O     z   0.01209  -0.15952   0.00000  -0.02596   0.00584   0.70579
   6  1  O     s  -0.04912   0.56858  -0.00001   0.08545  -0.03296   0.08798
   7  1  O     x   0.00895  -0.15189   0.00000   0.30808   0.27985   0.08266
   8  1  O     y   0.00000   0.00001   0.51036   0.00000   0.00000   0.00000
   9  1  O     z   0.00747  -0.12674   0.00000   0.03195   0.04686   0.30244
  10  2  H     s  -0.00187   0.02181  -0.00000  -0.01046  -0.03801   0.07947
  11  2  H     s   0.00602  -0.05882   0.00000  -0.01353  -0.04676   0.02591
  12  3  H     s  -0.00189   0.02167  -0.00000   0.08135   0.54822  -0.01102
  13  3  H     s   0.00614  -0.05948   0.00000   0.02572   0.23122  -0.01392

 ===========================================================================
    Orbital#             7
      Group#             2
 ---------------------------------------------------------------------------
  AO# LABELS
   1  1  O     s  -0.02302
   2  1  O     s  -0.00815
   3  1  O     x   0.04628
   4  1  O     y   0.00000
   5  1  O     z   0.24032
   6  1  O     s  -0.03200
   7  1  O     x   0.09311
   8  1  O     y   0.00000
   9  1  O     z   0.26862
  10  2  H     s   0.54468
  11  2  H     s   0.23842
  12  3  H     s  -0.03905
  13  3  H     s  -0.04774


 WORDS OF DYNAMIC MEMORY USED IN VB2000 CODE ONLY:        8100
 NOTE THAT THIS IS IN ADDITION TO MEMORY USED BY GAMESS
 PRINTED NEAR END OF OUTPUT. ADD THE TWO AMOUNTS TO GIVE
 THE TOTAL MEMORY USED BY THE JOB

 STATISTICS OF CPU TIMES (SECONDS)
 CPU TIME FOR INITIALIZATION        0.000
 CPU TIME FOR MACROITERATION        0.100
 TOTAL CPU TIME                     0.100

 STEP CPU TIME =     0.16 TOTAL CPU TIME =        0.3 (    0.0 MIN)
 TOTAL WALL CLOCK TIME=        0.4 SECONDS, CPU UTILIZATION IS  97.14%

 **************************************************************
 *                                                            *
 *                  ENDING GAMESS(US) VB2000                  *
 *                                                            *
 *  Properties for individual molecular orbitals are correct  *
 *   only for VB modified orbitals in a Hartree-Fock group.   *
 *                                                            *
 **************************************************************

 ************************************************
 * CALCULATING ENERGY     2 FOR NUMERIC HESSIAN *
 ************************************************
 MOVING ATOM   1 COORDINATE X TO        0.0477552401 A.U.
 ...... END OF ONE-ELECTRON INTEGRALS ......
 STEP CPU TIME =     0.00 TOTAL CPU TIME =        0.3 (    0.0 MIN)
 TOTAL WALL CLOCK TIME=        0.4 SECONDS, CPU UTILIZATION IS  97.14%
 TOTAL NUMBER OF NONZERO TWO-ELECTRON INTEGRALS =                2280
          1 INTEGRAL RECORDS WERE STORED ON DISK FILE  8.
  ...... END OF TWO-ELECTRON INTEGRALS .....
 STEP CPU TIME =     0.00 TOTAL CPU TIME =        0.3 (    0.0 MIN)
 TOTAL WALL CLOCK TIME=        0.4 SECONDS, CPU UTILIZATION IS  97.14%

          --------------------------
                 RHF SCF CALCULATION
          --------------------------
     DENSITY MATRIX CONV=  1.00E-05

 ITER EX DEM     TOTAL ENERGY        E CHANGE  DENSITY CHANGE     ORB. GRAD
   1  0  0      -73.1244089901   -73.1244089901   2.320290704   0.000000000
          ---------------START SECOND ORDER SCF---------------
   2  1  0      -75.8952820309    -2.7708730408   0.197115176   0.128257495
   3  2  0      -75.9633536441    -0.0680716131   0.162595105   0.099529778
   4  3  0      -75.9822929588    -0.0189393148   0.033100370   0.021802189
   5  4  0      -75.9833671579    -0.0010741991   0.002529949   0.002480099
   6  5  0      -75.9833877493    -0.0000205914   0.000526779   0.000311097
   7  6  0      -75.9833882908    -0.0000005416   0.000214235   0.000102089
   8  7  0      -75.9833883732    -0.0000000824   0.000024326   0.000012613
   9  8  0      -75.9833883739    -0.0000000007   0.000005586   0.000002967
  10  9  0      -75.9833883740    -0.0000000000   0.000000521   0.000000317

          -----------------
          DENSITY CONVERGED
          -----------------
     TIME TO FORM FOCK OPERATORS=       0.0 SECONDS (       0.0 SEC/ITER)
     TIME TO SOLVE SCF EQUATIONS=       0.0 SECONDS (       0.0 SEC/ITER)

 FINAL RHF ENERGY IS      -75.9833883740 AFTER  10 ITERATIONS
 ...... END OF RHF CALCULATION ......
 STEP CPU TIME =     0.00 TOTAL CPU TIME =        0.3 (    0.0 MIN)
 TOTAL WALL CLOCK TIME=        0.4 SECONDS, CPU UTILIZATION IS  97.14%

 **************************************************************
 *                                                            *
 *         ENTERING VB2000 INTERFACED INTO GAMESS(US)         *
 *                                                            *
 **************************************************************

 JOB NAME IS exam-vb13                                                       

 VB2000 DIRECTORY IS: /home/brian/qchem/gamess/vb2000                                                 
 MAXIMUM MEMORY USE IS:     6500000
 THIS IS TAKEN AS THE MAXIMUM OF THE UNUSED MEMORY REQUESTED
 IN GAMESS $SYSTEM BLOCK AND MEMORY REQUESTED IN VB2000 DATA

 Input of molecule
 =================
 #! VB(4)/6-31G PRINTALL                                                         
                                                                                 
 Title: Water 6-31G VB2000 Test                                                         

 MACROITERATION CONVERGENCE TOLERANCE TIGHTENED
 TO 10.00**(-8) FOR FREQUENCY RUN.

 Charge =  0 Multiplicity =  1

 ATOM      ATOMIC                      COORDINATES (ANGS)
           CHARGE         X                   Y                   Z
 O           8.0     0.0252709866        0.0000000000        0.0300801837
 H           1.0    -0.0325918777        0.0000000000        1.0024403179
 H           1.0     0.9815450983        0.0000000000       -0.2061686801

 Hartree-Fock Energy from Gamess run =     -75.983388373985

 Basis set size =   13

 BASIS IN $BASIS IS N31      WITH IGAUSS = 6

 VBO LIB IS: /home/brian/qchem/gamess/vb2000/VBOLIB/VBOLIB6-31G                              

 PARTITIONING OF LMOs INTO GROUPS ($LMOGRP)
 =======================================================================
 LMO#     1  2  3  4  5
 Group#   1  1  1  2  2
 Split    0  0  0  1  1




      GENERAL CONTROLS ($GENCTL)
 ====================================
 Number of electron groups       =    2
 Maximum macro-iterations        =   36
 Energy threshold           = 10**(- 8)
 Restart calculation(0/1/2)      =    0
 Group#                     1  2
 Num. of electrons          6  4
 Num. of spins              0  0
 Num. of orbitals           3  4
 Method#                    1  2

 SYMBOLIC VB STRUCTURE(S) OF GROUP  2
 STR. NO.       RUMER PATTERN  
    1           1  2   3  4


 MAP FILE IS: /home/brian/qchem/gamess/vb2000/MAP/MAP0400t                                    

 ENERGY AND DIFF OF MACROITER    1 =    -76.02155185    -76.02155185

 ENERGY AND DIFF OF MACROITER    2 =    -76.02751484     -0.00596300

 ENERGY AND DIFF OF MACROITER    3 =    -76.02914691     -0.00163206

 ENERGY AND DIFF OF MACROITER    4 =    -76.02922387     -0.00007696

 ENERGY AND DIFF OF MACROITER    5 =    -76.02924500     -0.00002113

 ENERGY AND DIFF OF MACROITER    6 =    -76.02925131     -0.00000631

 ENERGY AND DIFF OF MACROITER    7 =    -76.02925342     -0.00000211

 ENERGY AND DIFF OF MACROITER    8 =    -76.02925419     -0.00000077

 ENERGY AND DIFF OF MACROITER    9 =    -76.02925449     -0.00000029

 ENERGY AND DIFF OF MACROITER   10 =    -76.02925461     -0.00000012

 ENERGY AND DIFF OF MACROITER   11 =    -76.02925466     -0.00000005

 ENERGY AND DIFF OF MACROITER   12 =    -76.02925468     -0.00000002

 ENERGY AND DIFF OF MACROITER   13 =    -76.02925469     -0.00000001


 OVERLAP MATRIX OF VB ORBITALS FOR GROUP   2

        1      2      3      4
 ===============================
   1 1.0000
   2 0.8044 1.0000
   3 0.2013 0.1086 1.0000
   4 0.1078 0.0194 0.8005 1.0000

 ENERGY AND DIFF OF MACROITER   14 =    -76.02925469     -0.00000000


 MULLIKEN CHARGES ON ATOMS
 -------------------------
  ATOM             CHARGE 

    1            -0.73791
    2             0.36940
    3             0.36851

 -------------------------


 ORBITALS OF EACH ELECTRON GROUP IN AO BASIS: ORBITAL(GROUP)
 ===========================================================================
    Orbital#             1         2         3         4         5         6
      Group#             1         1         1         2         2         2
 ---------------------------------------------------------------------------
  AO# LABELS
   1  1  O     s   1.00883   0.14437  -0.00001  -0.06936  -0.02159  -0.06846
   2  1  O     s  -0.01312  -0.48550   0.00000   0.20782  -0.00988   0.20360
   3  1  O     x   0.01385   0.18270  -0.00000   0.09906   0.04863   0.71274
   4  1  O     y  -0.00001  -0.00001  -0.64184   0.00000  -0.00000   0.00000
   5  1  O     z   0.01169   0.15424  -0.00000   0.70726   0.24030  -0.03121
   6  1  O     s  -0.04907  -0.57259   0.00001   0.08095  -0.04181   0.08328
   7  1  O     x   0.00836   0.14416  -0.00000   0.08374   0.09341   0.31632
   8  1  O     y  -0.00001  -0.00000  -0.50976  -0.00000   0.00000  -0.00000
   9  1  O     z   0.00705   0.12170  -0.00000   0.30231   0.26657   0.02685
  10  2  H     s  -0.00183  -0.02173   0.00000   0.08026   0.54688  -0.00949
  11  2  H     s   0.00612   0.06000  -0.00000   0.02665   0.24039  -0.01297
  12  3  H     s  -0.00181  -0.02189   0.00000  -0.00898  -0.03721   0.07839
  13  3  H     s   0.00600   0.05923  -0.00000  -0.01262  -0.04705   0.02687

 ===========================================================================
    Orbital#             7
      Group#             2
 ---------------------------------------------------------------------------
  AO# LABELS
   1  1  O     s  -0.02046
   2  1  O     s  -0.01156
   3  1  O     x   0.24285
   4  1  O     y  -0.00000
   5  1  O     z   0.00418
   6  1  O     s  -0.04101
   7  1  O     x   0.27942
   8  1  O     y   0.00000
   9  1  O     z   0.04394
  10  2  H     s  -0.03823
  11  2  H     s  -0.04800
  12  3  H     s   0.54342
  13  3  H     s   0.24762


 WORDS OF DYNAMIC MEMORY USED IN VB2000 CODE ONLY:        8100
 NOTE THAT THIS IS IN ADDITION TO MEMORY USED BY GAMESS
 PRINTED NEAR END OF OUTPUT. ADD THE TWO AMOUNTS TO GIVE
 THE TOTAL MEMORY USED BY THE JOB

 STATISTICS OF CPU TIMES (SECONDS)
 CPU TIME FOR INITIALIZATION        0.000
 CPU TIME FOR MACROITERATION        0.090
 TOTAL CPU TIME                     0.090

 STEP CPU TIME =     0.15 TOTAL CPU TIME =        0.5 (    0.0 MIN)
 TOTAL WALL CLOCK TIME=        0.5 SECONDS, CPU UTILIZATION IS  96.08%

 **************************************************************
 *                                                            *
 *                  ENDING GAMESS(US) VB2000                  *
 *                                                            *
 *  Properties for individual molecular orbitals are correct  *
 *   only for VB modified orbitals in a Hartree-Fock group.   *
 *                                                            *
 **************************************************************

 ************************************************
 * CALCULATING ENERGY     3 FOR NUMERIC HESSIAN *
 ************************************************
 MOVING ATOM   1 COORDINATE Y TO        0.0100000000, AND
 MOVING ATOM   1 COORDINATE X TO        0.0777552401 A.U.
 ...... END OF ONE-ELECTRON INTEGRALS ......
 STEP CPU TIME =     0.00 TOTAL CPU TIME =        0.5 (    0.0 MIN)
 TOTAL WALL CLOCK TIME=        0.5 SECONDS, CPU UTILIZATION IS  96.08%
 TOTAL NUMBER OF NONZERO TWO-ELECTRON INTEGRALS =                3364
          1 INTEGRAL RECORDS WERE STORED ON DISK FILE  8.
  ...... END OF TWO-ELECTRON INTEGRALS .....
 STEP CPU TIME =     0.00 TOTAL CPU TIME =        0.5 (    0.0 MIN)
 TOTAL WALL CLOCK TIME=        0.5 SECONDS, CPU UTILIZATION IS  96.08%

          --------------------------
                 RHF SCF CALCULATION
          --------------------------
     DENSITY MATRIX CONV=  1.00E-05

 ITER EX DEM     TOTAL ENERGY        E CHANGE  DENSITY CHANGE     ORB. GRAD
   1  0  0      -73.1146330933   -73.1146330933   2.321930650   0.000000000
          ---------------START SECOND ORDER SCF---------------
   2  1  0      -75.8987881336    -2.7841550403   0.193040660   0.124586780
   3  2  0      -75.9662468488    -0.0674587152   0.159918028   0.094372349
   4  3  0      -75.9830748210    -0.0168279721   0.035134376   0.023071239
   5  4  0      -75.9842167649    -0.0011419439   0.002428438   0.002398478
   6  5  0      -75.9842344322    -0.0000176673   0.000446998   0.000263306
   7  6  0      -75.9842347799    -0.0000003477   0.000161119   0.000079953
   8  7  0      -75.9842348304    -0.0000000505   0.000020504   0.000011450
   9  8  0      -75.9842348312    -0.0000000007   0.000005553   0.000002258
  10  9  0      -75.9842348312    -0.0000000000   0.000000847   0.000000489

          -----------------
          DENSITY CONVERGED
          -----------------
     TIME TO FORM FOCK OPERATORS=       0.0 SECONDS (       0.0 SEC/ITER)
     TIME TO SOLVE SCF EQUATIONS=       0.0 SECONDS (       0.0 SEC/ITER)

 FINAL RHF ENERGY IS      -75.9842348312 AFTER  10 ITERATIONS
 ...... END OF RHF CALCULATION ......
 STEP CPU TIME =     0.00 TOTAL CPU TIME =        0.5 (    0.0 MIN)
 TOTAL WALL CLOCK TIME=        0.5 SECONDS, CPU UTILIZATION IS  96.08%

 **************************************************************
 *                                                            *
 *         ENTERING VB2000 INTERFACED INTO GAMESS(US)         *
 *                                                            *
 **************************************************************

 JOB NAME IS exam-vb13                                                       

 VB2000 DIRECTORY IS: /home/brian/qchem/gamess/vb2000                                                 
 MAXIMUM MEMORY USE IS:     6500000
 THIS IS TAKEN AS THE MAXIMUM OF THE UNUSED MEMORY REQUESTED
 IN GAMESS $SYSTEM BLOCK AND MEMORY REQUESTED IN VB2000 DATA

 Input of molecule
 =================
 #! VB(4)/6-31G PRINTALL                                                         
                                                                                 
 Title: Water 6-31G VB2000 Test                                                         

 MACROITERATION CONVERGENCE TOLERANCE TIGHTENED
 TO 10.00**(-8) FOR FREQUENCY RUN.

 Charge =  0 Multiplicity =  1

 ATOM      ATOMIC                      COORDINATES (ANGS)
           CHARGE         X                   Y                   Z
 O           8.0     0.0411463041        0.0052917725        0.0300801837
 H           1.0    -0.0325918777        0.0000000000        1.0024403179
 H           1.0     0.9815450983        0.0000000000       -0.2061686801

 Hartree-Fock Energy from Gamess run =     -75.984234831209

 Basis set size =   13

 BASIS IN $BASIS IS N31      WITH IGAUSS = 6

 VBO LIB IS: /home/brian/qchem/gamess/vb2000/VBOLIB/VBOLIB6-31G                              

 PARTITIONING OF LMOs INTO GROUPS ($LMOGRP)
 =======================================================================
 LMO#     1  2  3  4  5
 Group#   1  1  1  2  2
 Split    0  0  0  1  1




      GENERAL CONTROLS ($GENCTL)
 ====================================
 Number of electron groups       =    2
 Maximum macro-iterations        =   36
 Energy threshold           = 10**(- 8)
 Restart calculation(0/1/2)      =    0
 Group#                     1  2
 Num. of electrons          6  4
 Num. of spins              0  0
 Num. of orbitals           3  4
 Method#                    1  2

 SYMBOLIC VB STRUCTURE(S) OF GROUP  2
 STR. NO.       RUMER PATTERN  
    1           1  2   3  4


 MAP FILE IS: /home/brian/qchem/gamess/vb2000/MAP/MAP0400t                                    

 ENERGY AND DIFF OF MACROITER    1 =    -76.02171118    -76.02171118

 ENERGY AND DIFF OF MACROITER    2 =    -76.02756917     -0.00585799

 ENERGY AND DIFF OF MACROITER    3 =    -76.02921995     -0.00165078

 ENERGY AND DIFF OF MACROITER    4 =    -76.02929602     -0.00007606

 ENERGY AND DIFF OF MACROITER    5 =    -76.02931685     -0.00002083

 ENERGY AND DIFF OF MACROITER    6 =    -76.02932306     -0.00000621

 ENERGY AND DIFF OF MACROITER    7 =    -76.02932514     -0.00000208

 ENERGY AND DIFF OF MACROITER    8 =    -76.02932590     -0.00000076

 ENERGY AND DIFF OF MACROITER    9 =    -76.02932619     -0.00000029

 ENERGY AND DIFF OF MACROITER   10 =    -76.02932631     -0.00000012

 ENERGY AND DIFF OF MACROITER   11 =    -76.02932636     -0.00000005

 ENERGY AND DIFF OF MACROITER   12 =    -76.02932638     -0.00000002

 ENERGY AND DIFF OF MACROITER   13 =    -76.02932639     -0.00000001

 ENERGY AND DIFF OF MACROITER   14 =    -76.02932640     -0.00000000


 OVERLAP MATRIX OF VB ORBITALS FOR GROUP   2

        1      2      3      4
 ===============================
   1 1.0000
   2 0.8064 1.0000
   3 0.2052 0.1095 1.0000
   4 0.1091 0.0192 0.8044 1.0000

 ENERGY AND DIFF OF MACROITER   15 =    -76.02932640     -0.00000000


 MULLIKEN CHARGES ON ATOMS
 -------------------------
  ATOM             CHARGE 

    1            -0.74187
    2             0.37077
    3             0.37110

 -------------------------


 ORBITALS OF EACH ELECTRON GROUP IN AO BASIS: ORBITAL(GROUP)
 ===========================================================================
    Orbital#             1         2         3         4         5         6
      Group#             1         1         1         2         2         2
 ---------------------------------------------------------------------------
  AO# LABELS
   1  1  O     s  -1.00880   0.14284   0.00001  -0.07154  -0.02324  -0.07110
   2  1  O     s   0.01309  -0.48277   0.00000   0.21441  -0.00775   0.21229
   3  1  O     x  -0.01433   0.18902  -0.00458   0.71221   0.24593   0.09387
   4  1  O     y   0.00017  -0.00230  -0.64140  -0.00492  -0.00179  -0.00489
   5  1  O     z  -0.01199   0.15816  -0.00384  -0.02724   0.00542   0.70616
   6  1  O     s   0.04911  -0.56963   0.00001   0.08493  -0.03495   0.08618
   7  1  O     x  -0.00880   0.14994  -0.00364   0.31017   0.27980   0.08292
   8  1  O     y   0.00010  -0.00183  -0.51019  -0.00240  -0.00227  -0.00240
   9  1  O     z  -0.00737   0.12545  -0.00305   0.03069   0.04612   0.30242
  10  2  H     s   0.00186  -0.02179   0.00000  -0.01023  -0.03807   0.07967
  11  2  H     s  -0.00605   0.05911  -0.00000  -0.01339  -0.04707   0.02609
  12  3  H     s   0.00187  -0.02172   0.00000   0.08061   0.54701  -0.01050
  13  3  H     s  -0.00611   0.05946  -0.00000   0.02599   0.23530  -0.01358

 ===========================================================================
    Orbital#             7
      Group#             2
 ---------------------------------------------------------------------------
  AO# LABELS
   1  1  O     s  -0.02266
   2  1  O     s  -0.00859
   3  1  O     x   0.04686
   4  1  O     y  -0.00177
   5  1  O     z   0.24032
   6  1  O     s  -0.03449
   7  1  O     x   0.09319
   8  1  O     y  -0.00227
   9  1  O     z   0.26810
  10  2  H     s   0.54524
  11  2  H     s   0.23891
  12  3  H     s  -0.03859
  13  3  H     s  -0.04756


 WORDS OF DYNAMIC MEMORY USED IN VB2000 CODE ONLY:        8100
 NOTE THAT THIS IS IN ADDITION TO MEMORY USED BY GAMESS
 PRINTED NEAR END OF OUTPUT. ADD THE TWO AMOUNTS TO GIVE
 THE TOTAL MEMORY USED BY THE JOB

 STATISTICS OF CPU TIMES (SECONDS)
 CPU TIME FOR INITIALIZATION        0.000
 CPU TIME FOR MACROITERATION        0.110
 TOTAL CPU TIME                     0.110

 STEP CPU TIME =     0.17 TOTAL CPU TIME =        0.7 (    0.0 MIN)
 TOTAL WALL CLOCK TIME=        0.7 SECONDS, CPU UTILIZATION IS  98.51%

 **************************************************************
 *                                                            *
 *                  ENDING GAMESS(US) VB2000                  *
 *                                                            *
 *  Properties for individual molecular orbitals are correct  *
 *   only for VB modified orbitals in a Hartree-Fock group.   *
 *                                                            *
 **************************************************************

 ************************************************
 * CALCULATING ENERGY     4 FOR NUMERIC HESSIAN *
 ************************************************
 MOVING ATOM   1 COORDINATE Y TO        0.0100000000, AND
 MOVING ATOM   1 COORDINATE X TO        0.0577552401 A.U.
 ...... END OF ONE-ELECTRON INTEGRALS ......
 STEP CPU TIME =     0.00 TOTAL CPU TIME =        0.7 (    0.0 MIN)
 TOTAL WALL CLOCK TIME=        0.7 SECONDS, CPU UTILIZATION IS  98.51%
 TOTAL NUMBER OF NONZERO TWO-ELECTRON INTEGRALS =                3364
          1 INTEGRAL RECORDS WERE STORED ON DISK FILE  8.
  ...... END OF TWO-ELECTRON INTEGRALS .....
 STEP CPU TIME =     0.00 TOTAL CPU TIME =        0.7 (    0.0 MIN)
 TOTAL WALL CLOCK TIME=        0.7 SECONDS, CPU UTILIZATION IS  98.51%

          --------------------------
                 RHF SCF CALCULATION
          --------------------------
     DENSITY MATRIX CONV=  1.00E-05

 ITER EX DEM     TOTAL ENERGY        E CHANGE  DENSITY CHANGE     ORB. GRAD
   1  0  0      -73.1212310763   -73.1212310763   2.320835399   0.000000000
          ---------------START SECOND ORDER SCF---------------
   2  1  0      -75.8965268071    -2.7752957308   0.195759213   0.127040213
   3  2  0      -75.9643913274    -0.0678645203   0.161703281   0.097633746
   4  3  0      -75.9826043774    -0.0182130500   0.033794853   0.022198133
   5  4  0      -75.9837001805    -0.0010958031   0.002400179   0.002457472
   6  5  0      -75.9837197600    -0.0000195795   0.000501264   0.000295106
[...]
      Group#             2
 ---------------------------------------------------------------------------
  AO# LABELS
   1  1  O     s  -0.02199
   2  1  O     s  -0.00947
   3  1  O     x   0.04636
   4  1  O     y   0.00000
   5  1  O     z   0.24046
   6  1  O     s  -0.03831
   7  1  O     x   0.09154
   8  1  O     y   0.00000
   9  1  O     z   0.26752
  10  2  H     s   0.54628
  11  2  H     s   0.24021
  12  3  H     s  -0.03801
  13  3  H     s  -0.04804


 WORDS OF DYNAMIC MEMORY USED IN VB2000 CODE ONLY:        8100
 NOTE THAT THIS IS IN ADDITION TO MEMORY USED BY GAMESS
 PRINTED NEAR END OF OUTPUT. ADD THE TWO AMOUNTS TO GIVE
 THE TOTAL MEMORY USED BY THE JOB

 STATISTICS OF CPU TIMES (SECONDS)
 CPU TIME FOR INITIALIZATION        0.000
 CPU TIME FOR MACROITERATION        0.100
 TOTAL CPU TIME                     0.100

 STEP CPU TIME =     0.15 TOTAL CPU TIME =       26.1 (    0.4 MIN)
 TOTAL WALL CLOCK TIME=       26.2 SECONDS, CPU UTILIZATION IS  99.62%

 **************************************************************
 *                                                            *
 *                  ENDING GAMESS(US) VB2000                  *
 *                                                            *
 *  Properties for individual molecular orbitals are correct  *
 *   only for VB modified orbitals in a Hartree-Fock group.   *
 *                                                            *
 **************************************************************

 ************************************************
 * CALCULATING ENERGY   162 FOR NUMERIC HESSIAN *
 ************************************************
 MOVING ATOM   3 COORDINATE Z TO       -0.4096023128 A.U.
 ...... END OF ONE-ELECTRON INTEGRALS ......
 STEP CPU TIME =     0.00 TOTAL CPU TIME =       26.1 (    0.4 MIN)
 TOTAL WALL CLOCK TIME=       26.2 SECONDS, CPU UTILIZATION IS  99.62%
 TOTAL NUMBER OF NONZERO TWO-ELECTRON INTEGRALS =                2280
          1 INTEGRAL RECORDS WERE STORED ON DISK FILE  8.
  ...... END OF TWO-ELECTRON INTEGRALS .....
 STEP CPU TIME =     0.00 TOTAL CPU TIME =       26.1 (    0.4 MIN)
 TOTAL WALL CLOCK TIME=       26.2 SECONDS, CPU UTILIZATION IS  99.62%

          --------------------------
                 RHF SCF CALCULATION
          --------------------------
     DENSITY MATRIX CONV=  1.00E-05

 ITER EX DEM     TOTAL ENERGY        E CHANGE  DENSITY CHANGE     ORB. GRAD
   1  0  0      -73.1166515457   -73.1166515457   2.320691873   0.000000000
          ---------------START SECOND ORDER SCF---------------
   2  1  0      -75.8974984454    -2.7808468997   0.194127139   0.125971744
   3  2  0      -75.9651588542    -0.0676604087   0.161057751   0.096917543
   4  3  0      -75.9828244233    -0.0176655691   0.034211800   0.022566048
   5  4  0      -75.9839306725    -0.0011062493   0.002331159   0.002411863
   6  5  0      -75.9839491457    -0.0000184731   0.000469259   0.000279591
   7  6  0      -75.9839495396    -0.0000003940   0.000180083   0.000085637
   8  7  0      -75.9839495982    -0.0000000586   0.000020884   0.000011872
   9  8  0      -75.9839495988    -0.0000000007   0.000005458   0.000002264
  10  9  0      -75.9839495989    -0.0000000000   0.000000778   0.000000441

          -----------------
          DENSITY CONVERGED
          -----------------
     TIME TO FORM FOCK OPERATORS=       0.0 SECONDS (       0.0 SEC/ITER)
     TIME TO SOLVE SCF EQUATIONS=       0.0 SECONDS (       0.0 SEC/ITER)

 FINAL RHF ENERGY IS      -75.9839495989 AFTER  10 ITERATIONS
 ...... END OF RHF CALCULATION ......
 STEP CPU TIME =     0.00 TOTAL CPU TIME =       26.1 (    0.4 MIN)
 TOTAL WALL CLOCK TIME=       26.2 SECONDS, CPU UTILIZATION IS  99.62%

 **************************************************************
 *                                                            *
 *         ENTERING VB2000 INTERFACED INTO GAMESS(US)         *
 *                                                            *
 **************************************************************

 JOB NAME IS exam-vb13                                                       

 VB2000 DIRECTORY IS: /home/brian/qchem/gamess/vb2000                                                 
 MAXIMUM MEMORY USE IS:     6500000
 THIS IS TAKEN AS THE MAXIMUM OF THE UNUSED MEMORY REQUESTED
 IN GAMESS $SYSTEM BLOCK AND MEMORY REQUESTED IN VB2000 DATA

 Input of molecule
 =================
 #! VB(4)/6-31G PRINTALL                                                         
                                                                                 
 Title: Water 6-31G VB2000 Test                                                         

 MACROITERATION CONVERGENCE TOLERANCE TIGHTENED
 TO 10.00**(-8) FOR FREQUENCY RUN.

 Charge =  0 Multiplicity =  1

 ATOM      ATOMIC                      COORDINATES (ANGS)
           CHARGE         X                   Y                   Z
 O           8.0     0.0358545316        0.0000000000        0.0300801837
 H           1.0    -0.0325918777        0.0000000000        1.0024403179
 H           1.0     0.9815450983        0.0000000000       -0.2167522251

 Hartree-Fock Energy from Gamess run =     -75.983949598870

 Basis set size =   13

 BASIS IN $BASIS IS N31      WITH IGAUSS = 6

 VBO LIB IS: /home/brian/qchem/gamess/vb2000/VBOLIB/VBOLIB6-31G                              

 PARTITIONING OF LMOs INTO GROUPS ($LMOGRP)
 =======================================================================
 LMO#     1  2  3  4  5
 Group#   1  1  1  2  2
 Split    0  0  0  1  1




      GENERAL CONTROLS ($GENCTL)
 ====================================
 Number of electron groups       =    2
 Maximum macro-iterations        =   36
 Energy threshold           = 10**(- 8)
 Restart calculation(0/1/2)      =    0
 Group#                     1  2
 Num. of electrons          6  4
 Num. of spins              0  0
 Num. of orbitals           3  4
 Method#                    1  2

 SYMBOLIC VB STRUCTURE(S) OF GROUP  2
 STR. NO.       RUMER PATTERN  
    1           1  2   3  4


 MAP FILE IS: /home/brian/qchem/gamess/vb2000/MAP/MAP0400t                                    

 ENERGY AND DIFF OF MACROITER    1 =    -76.02170974    -76.02170974

 ENERGY AND DIFF OF MACROITER    2 =    -76.02758020     -0.00587046

 ENERGY AND DIFF OF MACROITER    3 =    -76.02922542     -0.00164523

 ENERGY AND DIFF OF MACROITER    4 =    -76.02930159     -0.00007617

 ENERGY AND DIFF OF MACROITER    5 =    -76.02932255     -0.00002097

 ENERGY AND DIFF OF MACROITER    6 =    -76.02932882     -0.00000627

 ENERGY AND DIFF OF MACROITER    7 =    -76.02933093     -0.00000210

 ENERGY AND DIFF OF MACROITER    8 =    -76.02933170     -0.00000077

 ENERGY AND DIFF OF MACROITER    9 =    -76.02933199     -0.00000029

 ENERGY AND DIFF OF MACROITER   10 =    -76.02933211     -0.00000012

 ENERGY AND DIFF OF MACROITER   11 =    -76.02933216     -0.00000005

 ENERGY AND DIFF OF MACROITER   12 =    -76.02933218     -0.00000002

 ENERGY AND DIFF OF MACROITER   13 =    -76.02933219     -0.00000001

 ENERGY AND DIFF OF MACROITER   14 =    -76.02933220     -0.00000000


 OVERLAP MATRIX OF VB ORBITALS FOR GROUP   2

        1      2      3      4
 ===============================
   1 1.0000
   2 0.8045 1.0000
   3 0.2051 0.1084 1.0000
   4 0.1082 0.0179 0.8036 1.0000

 ENERGY AND DIFF OF MACROITER   15 =    -76.02933220     -0.00000000


 MULLIKEN CHARGES ON ATOMS
 -------------------------
  ATOM             CHARGE 

    1            -0.74227
    2             0.37122
    3             0.37105

 -------------------------


 ORBITALS OF EACH ELECTRON GROUP IN AO BASIS: ORBITAL(GROUP)
 ===========================================================================
    Orbital#             1         2         3         4         5         6
      Group#             1         1         1         2         2         2
 ---------------------------------------------------------------------------
  AO# LABELS
   1  1  O     s  -1.00883  -0.14292   0.00001  -0.07106  -0.02263  -0.07085
   2  1  O     s   0.01318   0.48321  -0.00000   0.21247  -0.00857   0.21148
   3  1  O     x  -0.01431  -0.18850   0.00000   0.09952   0.04855   0.71170
   4  1  O     y  -0.00001  -0.00001  -0.64148   0.00000   0.00000   0.00000
   5  1  O     z  -0.01192  -0.15701   0.00000   0.70561   0.24018  -0.03200
   6  1  O     s   0.04918   0.57017  -0.00001   0.08537  -0.03560   0.08594
   7  1  O     x  -0.00878  -0.14934   0.00000   0.08513   0.09499   0.31301
   8  1  O     y  -0.00001  -0.00000  -0.51015   0.00000   0.00000   0.00000
   9  1  O     z  -0.00731  -0.12439   0.00000   0.30159   0.26765   0.02806
  10  2  H     s   0.00186   0.02173  -0.00000   0.07973   0.54533  -0.01068
  11  2  H     s  -0.00609  -0.05953   0.00000   0.02610   0.23856  -0.01316
  12  3  H     s   0.00186   0.02176  -0.00000  -0.01055  -0.03825   0.07928
  13  3  H     s  -0.00607  -0.05936   0.00000  -0.01307  -0.04674   0.02615

 ===========================================================================
    Orbital#             7
      Group#             2
 ---------------------------------------------------------------------------
  AO# LABELS
   1  1  O     s  -0.02236
   2  1  O     s  -0.00897
   3  1  O     x   0.24447
   4  1  O     y   0.00000
   5  1  O     z   0.00354
   6  1  O     s  -0.03539
   7  1  O     x   0.28065
   8  1  O     y   0.00000
   9  1  O     z   0.04424
  10  2  H     s  -0.03849
  11  2  H     s  -0.04697
  12  3  H     s   0.54450
  13  3  H     s   0.24027


 WORDS OF DYNAMIC MEMORY USED IN VB2000 CODE ONLY:        8100
 NOTE THAT THIS IS IN ADDITION TO MEMORY USED BY GAMESS
 PRINTED NEAR END OF OUTPUT. ADD THE TWO AMOUNTS TO GIVE
 THE TOTAL MEMORY USED BY THE JOB

 STATISTICS OF CPU TIMES (SECONDS)
 CPU TIME FOR INITIALIZATION        0.000
 CPU TIME FOR MACROITERATION        0.100
 TOTAL CPU TIME                     0.100

 STEP CPU TIME =     0.16 TOTAL CPU TIME =       26.2 (    0.4 MIN)
 TOTAL WALL CLOCK TIME=       26.3 SECONDS, CPU UTILIZATION IS  99.62%

 **************************************************************
 *                                                            *
 *                  ENDING GAMESS(US) VB2000                  *
 *                                                            *
 *  Properties for individual molecular orbitals are correct  *
 *   only for VB modified orbitals in a Hartree-Fock group.   *
 *                                                            *
 **************************************************************
 ...... END OF NUMERICAL HESSIAN CALCULATION ......

          ---------------
          ENERGY GRADIENT
          ---------------

 UNITS ARE HARTREE/BOHR    E'X               E'Y               E'Z 
    1 O                0.000086255      -0.000000001       0.000096605
    2 H               -0.000006986       0.000000000      -0.000072524
    3 H               -0.000072747       0.000000000      -0.000017126

          -------------------------------
          CARTESIAN FORCE CONSTANT MATRIX
          -------------------------------

                                   1                          2
                               O                          H         
                          X        Y        Z        X        Y        Z
  1   O            X 0.488270 0.000000-0.130420-0.051485-0.000000 0.069219
                   Y 0.000000 0.000082 0.000000-0.000000-0.000043-0.000000
                   Z-0.130420 0.000000 0.534223-0.006721-0.000000-0.459769
  2   H            X-0.051485-0.000000-0.006721 0.059765 0.000000-0.052931
                   Y-0.000000-0.000043-0.000000 0.000000 0.000042-0.000000
                   Z 0.069219-0.000000-0.459769-0.052931-0.000000 0.475694
  3   H            X-0.436790-0.000006 0.137148-0.008286 0.000006-0.016289
                   Y-0.000000-0.000037-0.000000-0.000000-0.000000 0.000000
                   Z 0.061203-0.000000-0.074452 0.059652 0.000000-0.015934

                                   3
                               H         
                          X        Y        Z
  3   H            X 0.445067 0.000000-0.120861
                   Y 0.000000 0.000036 0.000000
                   Z-0.120861 0.000000 0.090387

          --------------------------------------------------------
          NORMAL COORDINATE ANALYSIS IN THE HARMONIC APPROXIMATION
          --------------------------------------------------------

          ATOMIC WEIGHTS (AMU)

    1     O                15.99491
    2     H                 1.00782
    3     H                 1.00782

 MODES 1 TO 6 ARE TAKEN AS ROTATIONS AND TRANSLATIONS.

 ANALYZING SYMMETRY OF NORMAL MODES...

     FREQUENCIES IN CM**-1, IR INTENSITIES IN DEBYE**2/AMU-ANGSTROM**2,
     REDUCED MASSES IN AMU.

                          1           2           3           4           5
       FREQUENCY:         5.43        3.05        0.43       26.89       31.34  
        SYMMETRY:         A           A           A           A           A   
    REDUCED MASS:      6.04660     6.04586     5.80243     1.03850     1.03435

  1   O            X  0.23579797 -0.00196689  0.00220511 -0.02702024 -0.00342364
                   Y -0.00018315 -0.00002434  0.23479765 -0.00402406 -0.04120442
                   Z  0.00143915  0.23579134  0.00002626  0.03499013  0.00123081
  2   H            X  0.22789580  0.00136390  0.00236780  0.68719515  0.02143283
                   Y -0.03525234  0.00039113  0.24130456  0.07563528 -0.30312347
                   Z  0.00088530  0.23602994  0.00003773  0.08525334  0.00298039
  3   H            X  0.23772968 -0.00277439  0.00216558 -0.20056303 -0.00945913
                   Y -0.00048168 -0.00003541  0.24283422 -0.01485711  0.93386951
                   Z  0.00915308  0.23255357 -0.00013183 -0.65976413 -0.02294531

 TRANS. SAYVETZ    X  4.24083626 -0.03288175  0.03983944  0.05825364 -0.04269340
                   Y -0.03894315 -0.00003081  4.24349452 -0.00311071 -0.02337941
                   Z  0.03313597  4.24371145  0.00032525 -0.01934232 -0.00043442
               TOTAL  4.24114451  4.24383884  4.24368154  0.06145965  0.04867763

   ROT. SAYVETZ    X  0.06203480 -0.00074266 -0.00729308 -0.14699383  0.97971057
                   Y -0.02833079  0.01191578  0.00058193  2.55591172  0.08894470
                   Z  0.00734036 -0.00011191  0.01226662 -0.03632989  1.72365680
               TOTAL  0.06859178  0.01193943  0.01428277  2.56039289  1.98462509

                          6           7           8           9
       FREQUENCY:        34.64     1717.18     3587.62     3734.64  
        SYMMETRY:         A           A           A           A   
    REDUCED MASS:      1.10331     1.09183     1.03679     1.08536

  1   O            X  0.00961652 -0.05488951 -0.03306594  0.04438434
                   Y -0.07533869 -0.00000073 -0.00000053  0.00000050
                   Z -0.00253962 -0.04605193 -0.02775887 -0.05288338
  2   H            X -0.04160815  0.66924428 -0.12537058 -0.04752185
                   Y  0.91387113  0.00001155  0.00000845 -0.00000788
                   Z -0.00614572  0.08698906  0.68244629  0.67521109
  3   H            X  0.02204731  0.20180878  0.65014147 -0.65688367
                   Y  0.24684828  0.00000001  0.00000000  0.00000000
                   Z  0.04727756  0.64387841 -0.24190800  0.16407784

 TRANS. SAYVETZ    X  0.13410144 -0.00008373 -0.00000956  0.00000599
                   Y -0.03523360  0.00000000  0.00000000 -0.00000000
                   Z  0.00083278 -0.00001002 -0.00001506 -0.00000853
               TOTAL  0.13865531  0.00008433  0.00001784  0.00001042

   ROT. SAYVETZ    X -1.58404881 -0.00002139 -0.00001564  0.00001459
                   Y -0.18328589  0.00022215 -0.00003766  0.00005318
                   Z  0.32873233 -0.00000148 -0.00000110  0.00000103
               TOTAL  1.62814904  0.00022318  0.00004080  0.00005515

 REFERENCE ON SAYVETZ CONDITIONS - A. SAYVETZ, J.CHEM.PHYS., 7, 383-389(1939).

 NOTE - THE MODES J,K ARE ORTHONORMALIZED ACCORDING TO
 SUM ON I   M(I) * (X(I,J)*X(I,K) + Y(I,J)*Y(I,K) + Z(I,J)*Z(I,K)) = DELTA(J,K)

     -------------------------------
     THERMOCHEMISTRY AT T=  298.15 K
     -------------------------------

 USING IDEAL GAS, RIGID ROTOR, HARMONIC NORMAL MODE APPROXIMATIONS.
 P=  1.01325E+05 PASCAL.
 ALL FREQUENCIES ARE SCALED BY   1.00000
 THE MOMENTS OF INERTIA ARE (IN AMU*BOHR**2)
      2.09579     4.47934     6.57513
 THE ROTATIONAL SYMMETRY NUMBER IS  1.0
 THE ROTATIONAL CONSTANTS ARE (IN GHZ)
    860.33729   402.53415   274.22834
 THE HARMONIC ZERO POINT ENERGY IS (SCALED BY   1.000)
        0.020593 HARTREE/MOLECULE     4519.720149 CM**-1/MOLECULE 
       12.922541 KCAL/MOL               54.067913 KJ/MOL

               Q               LN Q
 ELEC.     1.00000E+00       0.000000
 TRANS.    3.00431E+06      14.915558
 ROT.      8.89355E+01       4.487911
 VIB.      1.00025E+00       0.000252
 TOT.      2.67257E+08      19.403721

              E         H         G         CV        CP        S
           KJ/MOL    KJ/MOL    KJ/MOL   J/MOL-K   J/MOL-K   J/MOL-K
 ELEC.      0.000     0.000     0.000     0.000     0.000     0.000
 TRANS.     3.718     6.197   -36.975    12.472    20.786   144.800
 ROT.       3.718     3.718   -11.125    12.472    12.472    49.786
 VIB.      54.073    54.073    54.067     0.144     0.144     0.019
 TOTAL     61.510    63.989     5.967    25.087    33.402   194.605
 VIB. THERMAL CORRECTION E(T)-E(0) = H(T)-H(0) =     5.177 J/MOL

              E         H         G         CV        CP        S
         KCAL/MOL  KCAL/MOL  KCAL/MOL CAL/MOL-K CAL/MOL-K CAL/MOL-K
 ELEC.      0.000     0.000     0.000     0.000     0.000     0.000
 TRANS.     0.889     1.481    -8.837     2.981     4.968    34.608
 ROT.       0.889     0.889    -2.659     2.981     2.981    11.899
 VIB.      12.924    12.924    12.922     0.034     0.034     0.005
 TOTAL     14.701    15.294     1.426     5.996     7.983    46.512
 VIB. THERMAL CORRECTION E(T)-E(0) = H(T)-H(0) =     1.237 CAL/MOL
 ......END OF NORMAL COORDINATE ANALYSIS......
 STEP CPU TIME =     0.00 TOTAL CPU TIME =       26.2 (    0.4 MIN)
 TOTAL WALL CLOCK TIME=       26.3 SECONDS, CPU UTILIZATION IS  99.62%
               580000  WORDS OF DYNAMIC MEMORY USED
 EXECUTION OF GAMESS TERMINATED NORMALLY Mon Oct 14 07:29:18 2013
 DDI: 263624 bytes (0.3 MB / 0 MWords) used by master data server.

 ----------------------------------------
 CPU timing information for all processes
 ========================================
 0: 24.613 + 1.616 = 26.229
 ----------------------------------------
 ddikick.x: exited gracefully.
unset echo
----- accounting info -----
Files used on the master node titch-64 were:
-rw-r--r-- 1 brian brian    1184 Oct 14 07:28 /scr/brian/exam-vb13.F05
-rw-rw-r-- 1 brian brian  180016 Oct 14 07:29 /scr/brian/exam-vb13.F08
-rw-rw-r-- 1 brian brian 1766880 Oct 14 07:29 /scr/brian/exam-vb13.F10
-rw-rw-r-- 1 brian brian      88 Oct 14 07:29 /scr/brian/exam-vb13.TEMP02
-rw-rw-r-- 1 brian brian      88 Oct 14 07:29 /scr/brian/exam-vb13.TEMP03
-rw-rw-r-- 1 brian brian     448 Oct 14 07:29 /scr/brian/exam-vb13.TEMP04
-rw-rw-r-- 1 brian brian     567 Oct 14 07:28 /scr/brian/exam-vb13.V80
-rw-rw-r-- 1 brian brian       0 Oct 14 07:28 /scr/brian/exam-vb13.V82
-rw-rw-r-- 1 brian brian       0 Oct 14 07:28 /scr/brian/exam-vb13.V83
-rw-rw-r-- 1 brian brian    1756 Oct 14 07:29 /scr/brian/exam-vb13.V84
-rw-rw-r-- 1 brian brian   49192 Oct 14 07:29 /scr/brian/exam-vb13.V85
-rw-rw-r-- 1 brian brian  196592 Oct 14 07:29 /scr/brian/exam-vb13.V86
-rw-rw-r-- 1 brian brian  196592 Oct 14 07:29 /scr/brian/exam-vb13.V87
-rw-rw-r-- 1 brian brian     736 Oct 14 07:29 /scr/brian/exam-vb13.V88
-rw-rw-r-- 1 brian brian       0 Oct 14 07:28 /scr/brian/exam-vb13.V89
ls: No match.
ls: No match.
ls: No match.
Mon Oct 14 07:29:21 EST 2013
0.080u 0.008s 0:29.46 0.2%	0+0k 8+16io 0pf+0w
