----- GAMESS execution script 'rungms' -----
This job is running on host titch-64
under operating system Linux at Mon Oct 14 07:29:40 EST 2013
Available scratch disk space (Kbyte units) at beginning of the job is
Filesystem     1K-blocks      Used Available Use% Mounted on
/dev/sda1      945022356 138266532 758751472  16% /
GAMESS temporary binary files will be written to /scr/brian
GAMESS supplementary output files will be written to /home/brian/scr
Copying input file exam-vb18.inp to your run's scratch directory...
cp tests/exam-vb18.inp /scr/brian/exam-vb18.F05
unset echo
/home/brian/qchem/gamess/ddikick.x /home/brian/qchem/gamess/gamess.01.x exam-vb18 -ddi 1 1 titch-64 -scr /scr/brian

 Distributed Data Interface kickoff program.
 Initiating 1 compute processes on 1 nodes to run the following command:
 /home/brian/qchem/gamess/gamess.01.x exam-vb18 

          ******************************************************
          *         GAMESS VERSION =  1 MAY 2013 (R1)          *
          *             FROM IOWA STATE UNIVERSITY             *
          * M.W.SCHMIDT, K.K.BALDRIDGE, J.A.BOATZ, S.T.ELBERT, *
          *   M.S.GORDON, J.H.JENSEN, S.KOSEKI, N.MATSUNAGA,   *
          *          K.A.NGUYEN, S.J.SU, T.L.WINDUS,           *
          *       TOGETHER WITH M.DUPUIS, J.A.MONTGOMERY       *
          *         J.COMPUT.CHEM.  14, 1347-1363(1993)        *
          **************** 64 BIT LINUX VERSION ****************

  SINCE 1993, STUDENTS AND POSTDOCS WORKING AT IOWA STATE UNIVERSITY
  AND ALSO IN THEIR VARIOUS JOBS AFTER LEAVING ISU HAVE MADE IMPORTANT
  CONTRIBUTIONS TO THE CODE:
     IVANA ADAMOVIC, CHRISTINE AIKENS, YURI ALEXEEV, POOJA ARORA,
     ANDREY ASADCHEV, ROB BELL, PRADIPTA BANDYOPADHYAY, JONATHAN BENTZ,
     BRETT BODE, GALINA CHABAN, WEI CHEN, CHEOL HO CHOI, PAUL DAY,
     ALBERT DEFUSCO, TIM DUDLEY, DMITRI FEDOROV, GRAHAM FLETCHER,
     MARK FREITAG, KURT GLAESEMANN, DAN KEMP, GRANT MERRILL,
     NORIYUKI MINEZAWA, JONATHAN MULLIN, TAKESHI NAGATA,
     SEAN NEDD, HEATHER NETZLOFF, BOSILJKA NJEGIC, RYAN OLSON, MIKE PAK,
     JIM SHOEMAKER, LYUDMILA SLIPCHENKO, SAROM SOK, JIE SONG,
     TETSUYA TAKETSUGU, SIMON WEBB, SOOHAENG YOO, FEDERICO ZAHARIEV

  ADDITIONAL CODE HAS BEEN PROVIDED BY COLLABORATORS IN OTHER GROUPS:
     IOWA STATE UNIVERSITY:
          JOE IVANIC, LAIMUTIS BYTAUTAS, KLAUS RUEDENBERG
     UNIVERSITY OF TOKYO: KIMIHIKO HIRAO, TAKAHITO NAKAJIMA,
          TAKAO TSUNEDA, MUNEAKI KAMIYA, SUSUMU YANAGISAWA,
          KIYOSHI YAGI, MAHITO CHIBA, SEIKEN TOKURA, NAOAKI KAWAKAMI
     UNIVERSITY OF AARHUS: FRANK JENSEN
     UNIVERSITY OF IOWA: VISVALDAS KAIRYS, HUI LI
     NATIONAL INST. OF STANDARDS AND TECHNOLOGY: WALT STEVENS, DAVID GARMER
     UNIVERSITY OF PISA: BENEDETTA MENNUCCI, JACOPO TOMASI
     UNIVERSITY OF MEMPHIS: HENRY KURTZ, PRAKASHAN KORAMBATH
     UNIVERSITY OF ALBERTA: TOBY ZENG, MARIUSZ KLOBUKOWSKI
     UNIVERSITY OF NEW ENGLAND: MARK SPACKMAN
     MIE UNIVERSITY: HIROAKI UMEDA
     MICHIGAN STATE UNIVERSITY:
          KAROL KOWALSKI, MARTA WLOCH, JEFFREY GOUR, JESSE LUTZ,
          WEI LI, PIOTR PIECUCH
     UNIVERSITY OF SILESIA: MONIKA MUSIAL, STANISLAW KUCHARSKI
     FACULTES UNIVERSITAIRES NOTRE-DAME DE LA PAIX:
          OLIVIER QUINET, BENOIT CHAMPAGNE
     UNIVERSITY OF CALIFORNIA - SANTA BARBARA: BERNARD KIRTMAN
     INSTITUTE FOR MOLECULAR SCIENCE:
          KAZUYA ISHIMURA, MICHIO KATOUDA, AND SHIGERU NAGASE
     UNIVERSITY OF NOTRE DAME: DAN CHIPMAN
     KYUSHU UNIVERSITY:
          HARUYUKI NAKANO,
          FENG LONG GU, JACEK KORCHOWIEC, MARCIN MAKOWSKI, AND YURIKO AOKI,
          HIROTOSHI MORI AND EISAKU MIYOSHI
     PENNSYLVANIA STATE UNIVERSITY:
          TZVETELIN IORDANOV, CHET SWALINA, JONATHAN SKONE,
          SHARON HAMMES-SCHIFFER
     WASEDA UNIVERSITY:
          MASATO KOBAYASHI, TOMOKO AKAMA, TSUGUKI TOUMA,
          TAKESHI YOSHIKAWA, YASUHIRO IKABATA, HIROMI NAKAI
     NANJING UNIVERSITY: SHUHUA LI
     UNIVERSITY OF NEBRASKA:
          PEIFENG SU, DEJUN SI, NANDUN THELLAMUREGE, YALI WANG, HUI LI
     UNIVERSITY OF ZURICH:
          ROBERTO PEVERATI, KIM BALDRIDGE
     N. COPERNICUS UNIVERSITY AND JACKSON STATE UNIVERSITY:
          MARIA BARYSZ

 EXECUTION OF GAMESS BEGUN Mon Oct 14 07:29:40 2013

            ECHO OF THE FIRST FEW INPUT CARDS -
 INPUT CARD>! GAMESS/VB2000 Test 18.                                                        
 INPUT CARD>! This run demonstates that the Gamess/VB code can run effective core           
 INPUT CARD>! potential calculations, in this case with the SBKJC potential. It             
 INPUT CARD>! also tests the CUBE facility by generating small cube files for the           
 INPUT CARD>! top two MOs. The number of grid points for the CUBE files is too              
 INPUT CARD>! small for an accurate representation of the orbitals, but it would            
 INPUT CARD>! fine if increased from 8 to 80 although take longer to run.                   
 INPUT CARD>!                                                                               
 INPUT CARD>! The final RHF energy is:=                                                     
 INPUT CARD>!                                                                               
 INPUT CARD>!  RHF ENERGY IS -10.2742272739 AFTER   9 ITERATIONS                            
 INPUT CARD>!                                                                               
 INPUT CARD>! The VB final energy is:-                                                      
 INPUT CARD>!                                                                               
 INPUT CARD>!  ENERGY AND DIFF OF MACROITER    8 =    -10.31300169     -0.00000010          
 INPUT CARD>!                                                                               
 INPUT CARD>! and the VB and HF dipole moments are 1.4404 and 1.4887 respectively.          
 INPUT CARD>!                                                                               
 INPUT CARD> $CONTRL SCFTYP=RHF COORD=UNIQUE VBTYP=VB2000 ECP=SBKJC $END                    
 INPUT CARD> $SYSTEM TIMLIM=20 MEMORY=2000000 $END                                          
 INPUT CARD> $BASIS GBASIS=SBKJC $END                                                       
 INPUT CARD> $GUESS  GUESS=HUCKEL $END                                                      
 INPUT CARD> $DATA                                                                          
 INPUT CARD>Selenium dihydride - SBKJC                                                      
 INPUT CARD>C1                                                                              
 INPUT CARD> SELENIUM   34.0   0.0000000000   0.0000000000  -0.2752608204                   
 INPUT CARD> HYDROGEN    1.0   0.0000000000  -1.0776417007   0.7241659339                   
 INPUT CARD> HYDROGEN    1.0   0.0000000000   1.0776417007   0.7241659339                   
 INPUT CARD> $END                                                                           
 INPUT CARD> $VB2000                                                                        
 INPUT CARD>#! VB(4)/Gen PRINTALL                                                           
 INPUT CARD>                                                                                
 INPUT CARD>Selenium dihydride - SBKJC                                                      
 INPUT CARD>                                                                                
 INPUT CARD> $CUBE                                                                          
 INPUT CARD> 2                                                                              
 INPUT CARD> 3 4                                                                            
 INPUT CARD> SeH2 SBKJC                                                                     
 INPUT CARD> 8                                                                              
 INPUT CARD>                                                                                
 INPUT CARD> $END                                                                           
 INPUT CARD>                                                                                
    2000000 WORDS OF MEMORY AVAILABLE

     BASIS OPTIONS
     -------------
     GBASIS=SBKJC        IGAUSS=       0      POLAR=NONE    
     NDFUNC=       0     NFFUNC=       0     DIFFSP=       F
     NPFUNC=       0      DIFFS=       F     BASNAM=        


     RUN TITLE
     ---------
 Selenium dihydride - SBKJC                                                      

 THE POINT GROUP OF THE MOLECULE IS C1      
 THE ORDER OF THE PRINCIPAL AXIS IS     0

 ATOM      ATOMIC                      COORDINATES (BOHR)
           CHARGE         X                   Y                   Z
 SELENIUM   34.0     0.0000000000        0.0000000000       -0.5201675257
 HYDROGEN    1.0     0.0000000000       -2.0364475273        1.3684751847
 HYDROGEN    1.0     0.0000000000        2.0364475273        1.3684751847

          INTERNUCLEAR DISTANCES (ANGS.)
          ------------------------------

                1 SELE       2 HYDR       3 HYDR  

   1 SELE    0.0000000    1.4697501 *  1.4697501 *
   2 HYDR    1.4697501 *  0.0000000    2.1552834 *
   3 HYDR    1.4697501 *  2.1552834 *  0.0000000  

  * ... LESS THAN  3.000


     ATOMIC BASIS SET
     ----------------
 THE CONTRACTED PRIMITIVE FUNCTIONS HAVE BEEN UNNORMALIZED
 THE CONTRACTED BASIS FUNCTIONS ARE NOW NORMALIZED TO UNITY

  SHELL TYPE  PRIMITIVE        EXPONENT          CONTRACTION COEFFICIENT(S)

 SELENIUM  

      1   L       1             3.7110000    0.055743967977   -0.006013994687
      1   L       2             1.5860000   -0.510519706723   -0.121446892715
      1   L       3             0.5339000    0.480754723822    0.452606600171
      1   L       4             0.2085000    0.810291534513    0.669750408348

      2   L       5             0.0782100    1.000000000000    1.000000000000

 HYDROGEN  

      3   S       6            13.0077340    0.033494604338
      3   S       7             1.9620794    0.234726953484
      3   S       8             0.4445290    0.813757326146

      4   S       9             0.1219492    1.000000000000

 HYDROGEN  

      5   S      10            13.0077340    0.033494604338
      5   S      11             1.9620794    0.234726953484
      5   S      12             0.4445290    0.813757326146

      6   S      13             0.1219492    1.000000000000

 TOTAL NUMBER OF BASIS SET SHELLS             =    6
 NUMBER OF CARTESIAN GAUSSIAN BASIS FUNCTIONS =   12
 NUMBER OF ELECTRONS                          =   36
 CHARGE OF MOLECULE                           =    0
 SPIN MULTIPLICITY                            =    1
 NUMBER OF OCCUPIED ORBITALS (ALPHA)          =   18
 NUMBER OF OCCUPIED ORBITALS (BETA )          =   18
 TOTAL NUMBER OF ATOMS                        =    3
 THE NUCLEAR REPULSION ENERGY IS       24.7286346555
 NOTE THIS RUN IS USING CORE POTENTIALS, AND THE NUMBER OF ELECTRONS,
 OCCUPIED ORBITALS, AND NUCLEAR REPULSION ENERGY WILL BE ADJUSTED BELOW
 AFTER REMOVAL OF THE CORE CHARGES.

     $CONTRL OPTIONS
     ---------------
 SCFTYP=RHF          RUNTYP=ENERGY       EXETYP=RUN     
 MPLEVL=       0     CITYP =NONE         CCTYP =NONE         VBTYP =VB2000  
 DFTTYP=NONE         TDDFT =NONE    
 MULT  =       1     ICHARG=       0     NZVAR =       0     COORD =UNIQUE  
 PP    =SBKJC        RELWFN=NONE         LOCAL =NONE         NUMGRD=       F
 ISPHER=      -1     NOSYM =       0     MAXIT =      30     UNITS =ANGS    
 PLTORB=       F     MOLPLT=       F     AIMPAC=       F     FRIEND=        
 NPRINT=       7     IREST =       0     GEOM  =INPUT   
 NORMF =       0     NORMP =       0     ITOL  =      20     ICUT  =       9
 INTTYP=BEST         GRDTYP=BEST         QMTTOL= 1.0E-06

     $SYSTEM OPTIONS
     ---------------
  REPLICATED MEMORY=     2000000 WORDS (ON EVERY NODE).
 DISTRIBUTED MEMDDI=           0 MILLION WORDS IN AGGREGATE,
 MEMDDI DISTRIBUTED OVER   1 PROCESSORS IS           0 WORDS/PROCESSOR.
 TOTAL MEMORY REQUESTED ON EACH PROCESSOR=     2000000 WORDS.
 TIMLIM=          20.00 MINUTES, OR       0.0 DAYS.
 PARALL= F  BALTYP=  DLB     KDIAG=    0  COREFL= F
 MXSEQ2=     300 MXSEQ3=     150

          --------------
          ECP POTENTIALS
          --------------

 PARAMETERS FOR "SBKJC-34" ON ATOM    1 WITH ZCORE  28 AND LMAX  3 ARE
 FOR L= 3      COEFF    N           ZETA
    1       -5.58498    1        2.09356
 FOR L= 0      COEFF    N           ZETA
    1       13.28081    0       20.55644
    2       51.00011    2        3.15490
 FOR L= 1      COEFF    N           ZETA
    1        1.79640    0        2.58495
    2       30.43787    2        2.58526
 FOR L= 2      COEFF    N           ZETA
    1        2.40001    0        1.38290
    2        6.59948    2        1.42671

 THE ECP RUN REMOVES   28 CORE ELECTRONS, AND THE SAME NUMBER OF PROTONS.
 NUMBER OF ELECTRONS KEPT IN THE CALCULATION IS =    8
 NUMBER OF OCCUPIED ORBITALS (ALPHA) KEPT IS    =    4
 NUMBER OF OCCUPIED ORBITALS (BETA ) KEPT IS    =    4
 THE ADJUSTED NUCLEAR REPULSION ENERGY=        4.5660742565
          ECP ANGULAR INTS.........     0.00 SECONDS

          ----------------
          PROPERTIES INPUT
          ----------------

     MOMENTS            FIELD           POTENTIAL          DENSITY
 IEMOM =       1   IEFLD =       0   IEPOT =       0   IEDEN =       0
 WHERE =COMASS     WHERE =NUCLEI     WHERE =NUCLEI     WHERE =NUCLEI  
 OUTPUT=BOTH       OUTPUT=BOTH       OUTPUT=BOTH       OUTPUT=BOTH    
 IEMINT=       0   IEFINT=       0                     IEDINT=       0
                                                       MORB  =       0
          EXTRAPOLATION IN EFFECT
          SOSCF IN EFFECT
 ORBITAL PRINTING OPTION: NPREO=     1    12     2     1

     -------------------------------
     INTEGRAL TRANSFORMATION OPTIONS
     -------------------------------
     NWORD  =            0
     CUTOFF = 1.0E-09     MPTRAN =       0
     DIRTRF =       F     AOINTS =DUP     

          ----------------------
          INTEGRAL INPUT OPTIONS
          ----------------------
 NOPK  =       1 NORDER=       0 SCHWRZ=       F

     ------------------------------------------
     THE POINT GROUP IS C1 , NAXIS= 0, ORDER= 1
     ------------------------------------------

     DIMENSIONS OF THE SYMMETRY SUBSPACES ARE
 A   =   12

 ..... DONE SETTING UP THE RUN .....
 STEP CPU TIME =     0.00 TOTAL CPU TIME =        0.0 (    0.0 MIN)
 TOTAL WALL CLOCK TIME=        0.0 SECONDS, CPU UTILIZATION IS   0.00%

          ********************
          1 ELECTRON INTEGRALS
          ********************
 TIME TO DO ORDINARY INTEGRALS=      0.00
 TIME TO DO      ECP INTEGRALS=      0.00
 ...... END OF ONE-ELECTRON INTEGRALS ......
 STEP CPU TIME =     0.00 TOTAL CPU TIME =        0.0 (    0.0 MIN)
 TOTAL WALL CLOCK TIME=        0.0 SECONDS, CPU UTILIZATION IS   0.00%

          -------------
          GUESS OPTIONS
          -------------
          GUESS =HUCKEL            NORB  =       0          NORDER=       0
          MIX   =       F          PRTMO =       F          PUNMO =       F
          TOLZ  = 1.0E-08          TOLE  = 1.0E-05
          SYMDEN=       F          PURIFY=       F

 INITIAL GUESS ORBITALS GENERATED BY HUCKEL   ROUTINE.
 HUCKEL GUESS REQUIRES      3276 WORDS.

 SYMMETRIES FOR INITIAL GUESS ORBITALS FOLLOW.   BOTH SET(S).
     4 ORBITALS ARE OCCUPIED (    0 CORE ORBITALS).
     1=A        2=A        3=A        4=A        5=A        6=A        7=A   
     8=A        9=A       10=A       11=A       12=A   
 ...... END OF INITIAL ORBITAL SELECTION ......
 STEP CPU TIME =     0.00 TOTAL CPU TIME =        0.0 (    0.0 MIN)
 TOTAL WALL CLOCK TIME=        0.0 SECONDS, CPU UTILIZATION IS   0.00%

                    ----------------------
                    AO INTEGRAL TECHNOLOGY
                    ----------------------
     S,P,L SHELL ROTATED AXIS INTEGRALS, REPROGRAMMED BY
        KAZUYA ISHIMURA (IMS) AND JOSE SIERRA (SYNSTAR).
     S,P,D,L SHELL ROTATED AXIS INTEGRALS PROGRAMMED BY
        KAZUYA ISHIMURA (INSTITUTE FOR MOLECULAR SCIENCE).
     S,P,D,F,G SHELL TO TOTAL QUARTET ANGULAR MOMENTUM SUM 5,
        ERIC PROGRAM BY GRAHAM FLETCHER (ELORET AND NASA ADVANCED
        SUPERCOMPUTING DIVISION, AMES RESEARCH CENTER).
     S,P,D,F,G,L SHELL GENERAL RYS QUADRATURE PROGRAMMED BY
        MICHEL DUPUIS (PACIFIC NORTHWEST NATIONAL LABORATORY).

          --------------------
          2 ELECTRON INTEGRALS
          --------------------

 THE -PK- OPTION IS OFF, THE INTEGRALS ARE NOT IN SUPERMATRIX FORM.
 STORING   15000 INTEGRALS/RECORD ON DISK, USING 12 BYTES/INTEGRAL.
 TWO ELECTRON INTEGRAL EVALUATION REQUIRES   89377 WORDS OF MEMORY.
 II,JST,KST,LST =  1  1  1  1 NREC =         1 INTLOC =    1
 II,JST,KST,LST =  2  1  1  1 NREC =         1 INTLOC =   17
 II,JST,KST,LST =  3  1  1  1 NREC =         1 INTLOC =  139
 II,JST,KST,LST =  4  1  1  1 NREC =         1 INTLOC =  362
 II,JST,KST,LST =  5  1  1  1 NREC =         1 INTLOC =  677
 II,JST,KST,LST =  6  1  1  1 NREC =         1 INTLOC = 1100
 TOTAL NUMBER OF NONZERO TWO-ELECTRON INTEGRALS =                1665
          1 INTEGRAL RECORDS WERE STORED ON DISK FILE  8.
  ...... END OF TWO-ELECTRON INTEGRALS .....
 STEP CPU TIME =     0.01 TOTAL CPU TIME =        0.0 (    0.0 MIN)
 TOTAL WALL CLOCK TIME=        0.0 SECONDS, CPU UTILIZATION IS  50.00%

          --------------------------
                 RHF SCF CALCULATION
          --------------------------

     NUCLEAR ENERGY =         4.5660742565
     MAXIT =   30     NPUNCH=    2
     EXTRAP=T  DAMP=F  SHIFT=F  RSTRCT=F  DIIS=F  DEM=F  SOSCF=T
     DENSITY MATRIX CONV=  1.00E-05
     SOSCF WILL OPTIMIZE      32 ORBITAL ROTATIONS, SOGTOL=   0.250
     MEMORY REQUIRED FOR RHF ITERS=     31304 WORDS.

 ITER EX DEM     TOTAL ENERGY        E CHANGE  DENSITY CHANGE     ORB. GRAD
   1  0  0      -10.1894823282   -10.1894823282   0.366036023   0.000000000
          ---------------START SECOND ORDER SCF---------------
   2  1  0      -10.2705681101    -0.0810857820   0.069279834   0.021624380
   3  2  0      -10.2739884762    -0.0034203661   0.019775302   0.006121302
   4  3  0      -10.2742223212    -0.0002338450   0.002998448   0.000607423
   5  4  0      -10.2742268149    -0.0000044937   0.000867241   0.000216729
   6  5  0      -10.2742272721    -0.0000004572   0.000047656   0.000017773
   7  6  0      -10.2742272739    -0.0000000017   0.000011896   0.000003816
   8  7  0      -10.2742272739    -0.0000000001   0.000001064   0.000000343
   9  8  0      -10.2742272739    -0.0000000000   0.000000463   0.000000102

          -----------------
          DENSITY CONVERGED
          -----------------
     TIME TO FORM FOCK OPERATORS=       0.0 SECONDS (       0.0 SEC/ITER)
     TIME TO SOLVE SCF EQUATIONS=       0.0 SECONDS (       0.0 SEC/ITER)

 FINAL RHF ENERGY IS      -10.2742272739 AFTER   9 ITERATIONS

          ------------
          EIGENVECTORS
          ------------

                      1          2          3          4          5
                   -0.9593    -0.5602    -0.4694    -0.3610     0.1296
                     A          A          A          A          A   
    1  SE 1  S    0.786934   0.000000  -0.353209  -0.000000   0.000000
    2  SE 1  X   -0.000000   0.000000   0.000000   0.780709   0.000000
    3  SE 1  Y   -0.000000   0.524281   0.000000  -0.000000   0.446037
    4  SE 1  Z    0.115277   0.000000   0.595959  -0.000000   0.000000
    5  SE 1  S    0.064733   0.000000  -0.289932  -0.000000   0.000000
    6  SE 1  X   -0.000000   0.000000   0.000000   0.296944   0.000000
    7  SE 1  Y   -0.000000   0.000156   0.000000  -0.000000   1.241552
    8  SE 1  Z   -0.011676   0.000000   0.066728  -0.000000   0.000000
    9  H  2  S    0.165362  -0.326979   0.222119  -0.000000   0.202106
   10  H  2  S    0.022712  -0.185508   0.189156  -0.000000   1.122464
   11  H  3  S    0.165362   0.326979   0.222119  -0.000000  -0.202106
   12  H  3  S    0.022712   0.185508   0.189156  -0.000000  -1.122464

                      6          7          8          9         10
                    0.1616     0.3015     0.3086     0.3339     0.7393
                     A          A          A          A          A   
    1  SE 1  S    0.357536   0.000000   0.018657  -0.000000   0.000000
    2  SE 1  X   -0.000000   0.000000  -0.000000  -1.063043   0.000000
    3  SE 1  Y   -0.000000  -1.036477  -0.000000  -0.000000  -0.558399
    4  SE 1  Z    0.413324   0.000000  -1.021373  -0.000000   0.000000
    5  SE 1  S    1.863256   0.000000   0.053416  -0.000000   0.000000
    6  SE 1  X   -0.000000   0.000000  -0.000000   1.285065   0.000000
    7  SE 1  Y   -0.000000   1.158440  -0.000000  -0.000000   1.159618
    8  SE 1  Z    1.465508   0.000000   1.311374  -0.000000   0.000000
    9  H  2  S   -0.156904   0.103437  -0.093220  -0.000000  -0.988685
   10  H  2  S   -1.672221  -0.174670   0.003707  -0.000000   1.654076
   11  H  3  S   -0.156904  -0.103437  -0.093220  -0.000000   0.988685
   12  H  3  S   -1.672221   0.174670   0.003707  -0.000000  -1.654076

                     11         12
                    0.7605     2.2435
                     A          A   
    1  SE 1  S    0.129632  -1.546189
    2  SE 1  X   -0.000000   0.000000
    3  SE 1  Y   -0.000000   0.000000
    4  SE 1  Z    0.513933   0.015015
    5  SE 1  S   -1.486551   3.378055
    6  SE 1  X   -0.000000   0.000000
    7  SE 1  Y   -0.000000   0.000000
    8  SE 1  Z   -1.055931   1.035083
    9  H  2  S   -1.022661   0.123670
   10  H  2  S    1.666931  -1.319810
   11  H  3  S   -1.022661   0.123670
   12  H  3  S    1.666931  -1.319810
 ...... END OF RHF CALCULATION ......
 STEP CPU TIME =     0.01 TOTAL CPU TIME =        0.0 (    0.0 MIN)
 TOTAL WALL CLOCK TIME=        0.0 SECONDS, CPU UTILIZATION IS 100.00%

     ----------------------------------------------------------------
     PROPERTY VALUES FOR THE RHF   SELF-CONSISTENT FIELD WAVEFUNCTION
     ----------------------------------------------------------------

          -----------------
          ENERGY COMPONENTS
          -----------------

         WAVEFUNCTION NORMALIZATION =       1.0000000000

                ONE ELECTRON ENERGY =     -24.9805552045
                TWO ELECTRON ENERGY =      10.1402536741
           NUCLEAR REPULSION ENERGY =       4.5660742565
                                      ------------------
                       TOTAL ENERGY =     -10.2742272739

 ELECTRON-ELECTRON POTENTIAL ENERGY =      10.1402536741
  NUCLEUS-ELECTRON POTENTIAL ENERGY =     -29.1980387964
   NUCLEUS-NUCLEUS POTENTIAL ENERGY =       4.5660742565
                                      ------------------
             TOTAL POTENTIAL ENERGY =     -14.4917108658
               TOTAL KINETIC ENERGY =       4.2174835919
                 VIRIAL RATIO (V/T) =       3.4361036742

  ...... PI ENERGY ANALYSIS ......

 ENERGY ANALYSIS:
            FOCK ENERGY=     -4.7000477894
          BARE H ENERGY=    -24.9805552045
     ELECTRONIC ENERGY =    -14.8403014970
         KINETIC ENERGY=      4.2174835919
          N-N REPULSION=      4.5660742565
           TOTAL ENERGY=    -10.2742272405
        SIGMA PART(1+2)=    -11.6027443434
               (K,V1,2)=      3.1361035187    -22.3636431496      7.6247952875
           PI PART(1+2)=     -3.2375571536
               (K,V1,2)=      1.0813800732     -6.8343956468      2.5154584200
  SIGMA SKELETON, ERROR=     -7.0366700869     -0.0000000000
             MIXED PART= 0.00000E+00 0.00000E+00 0.00000E+00 0.00000E+00
 ...... END OF PI ENERGY ANALYSIS ......

          ---------------------------------------
          MULLIKEN AND LOWDIN POPULATION ANALYSES
          ---------------------------------------

     ATOMIC MULLIKEN POPULATION IN EACH MOLECULAR ORBITAL

                      1          2          3          4

                  2.000000   2.000000   2.000000   2.000000

    1             1.648427   0.887787   1.450641   2.000000
    2             0.175787   0.556106   0.274679   0.000000
    3             0.175787   0.556106   0.274679   0.000000

               ----- POPULATIONS IN EACH AO -----
                             MULLIKEN      LOWDIN
              1  SE 1  S      1.69247     1.30724
              2  SE 1  X      1.52133     1.39527
              3  SE 1  Y      0.88756     0.74946
              4  SE 1  Z      1.09794     0.96370
              5  SE 1  S      0.21285     0.43094
              6  SE 1  X      0.47867     0.60473
              7  SE 1  Y      0.00023     0.22670
              8  SE 1  Z      0.09581     0.36095
              9  H  2  S      0.70384     0.64021
             10  H  2  S      0.30273     0.34028
             11  H  3  S      0.70384     0.64021
             12  H  3  S      0.30273     0.34028

          ----- MULLIKEN ATOMIC OVERLAP POPULATIONS -----
          (OFF-DIAGONAL ELEMENTS NEED TO BE MULTIPLIED BY 2)

             1           2           3

    1    5.5584932
    2    0.2141811   0.8001392
    3    0.2141811  -0.0077480   0.8001392

          TOTAL MULLIKEN AND LOWDIN ATOMIC POPULATIONS
       ATOM         MULL.POP.    CHARGE          LOW.POP.     CHARGE
    1 SELENIUM      5.986855    0.013145         6.039005   -0.039005
    2 HYDROGEN      1.006572   -0.006572         0.980497    0.019503
    3 HYDROGEN      1.006572   -0.006572         0.980497    0.019503

          -------------------------------
          BOND ORDER AND VALENCE ANALYSIS     BOND ORDER THRESHOLD=0.050
          -------------------------------

                   BOND                       BOND                       BOND
  ATOM PAIR DIST  ORDER      ATOM PAIR DIST  ORDER      ATOM PAIR DIST  ORDER
    1   2  1.470  0.936        1   3  1.470  0.936

                       TOTAL       BONDED        FREE
      ATOM            VALENCE     VALENCE     VALENCE
    1 SELENIUM          1.872       1.872       0.000
    2 HYDROGEN          0.939       0.939       0.000
    3 HYDROGEN          0.939       0.939      -0.000

          ---------------------
          ELECTROSTATIC MOMENTS
          ---------------------

 POINT   1           X           Y           Z (BOHR)    CHARGE
                 0.000000    0.000000   -0.473704        0.00 (A.U.)
         DX          DY          DZ         /D/  (DEBYE)
     0.000000   -0.000000    1.488652    1.488652
 ...... END OF PROPERTY EVALUATION ......
 STEP CPU TIME =     0.00 TOTAL CPU TIME =        0.0 (    0.0 MIN)
 TOTAL WALL CLOCK TIME=        0.0 SECONDS, CPU UTILIZATION IS  66.67%

 **************************************************************
 *                                                            *
 *         ENTERING VB2000 INTERFACED INTO GAMESS(US)         *
 *                                                            *
 **************************************************************

 **************************************************************
 *                                                            *
 *                        V B 2 0 0 0                         *
 *                                                            *
 *       An ab initio Valence-Bond Program Based on the       *
 *           Generalized Product Function Method and          *
 *                   the Algebrant Algorithm                  *
 *                                                            *
 *                   Version 2.7 October 2013                 *
 *                      GAMESS(US) Version                    *
 *                     Compiler: gfortran                     *
 *                                                            *
 *         Jiabo Li*, Brian Duke** and Roy McWeeny***         *
 *                                                            *
 *        * SciNet Technologies, 9943 Fieldthorn St.,         *
 *                   San Diego, CA 92127, USA                 *
 *                                                            *
 *  ** Monash University Institute of Pharmaceutical Sciences,*
 *     381 Royal Pde, Parkville, Victoria, 3052, Australia    *
 *                                                            *
 * *** Department of Chemistry, University of Pisa,           *
 *     56100 Pisa, Italy                                      *
 *                                                            *
 *  Reference for the software:                               *
 *     Jiabo Li, Brian Duke, and Roy McWeeny, VB2000 Version  *
 *     2.7, SciNet Technologies, San Diego, CA, 2013          *
 *     URL: http://www.scinetec.com or http://www.vb2000.net  *
 *                                                            *
 *  References for the theory:                                *
 *     General:                                               *
 *     Jiabo Li, and Roy McWeeny, "VB2000: Pushing Valence    *
 *     Bond Theory to New Limits", Int. J. Quantum Chem.,     *
 *     89(2002)208-216.                                       *
 *                                                            *
 *     Spin densities:-                                       *
 *     Jiabo Li, Brian J. Duke, Thomas M. Klapoetke, and Roy  *
 *     McWeeny, Spin-Density of Spin-Free Valence Bond Wave   *
 *     Functions and Its Implementation in VB2000. J. Theor.  *
 *     Comp. Chem. 7(2008)853-867.                            *
 *                                                            *
 *     Spin coupled - n electrons in m orbitals:-             *
 *     Peter B. Karadakov, David L. Cooper, Brian J. Duke,    *
 *     and Jiabo Li, Spin-Coupled Theory for N Electrons in   *
 *     M Orbitals Active Spaces,  J. Phys. Chem. A, 116,      *
 *     7238 - 7244, 2012                                      *
 *                                                            *
 *  Copyright (C) 2000-2013 by SciNet Technologies            *
 **************************************************************

 JOB NAME IS exam-vb18                                                       

 VB2000 DIRECTORY IS: /home/brian/qchem/gamess/vb2000                                                 
 MAXIMUM MEMORY USE IS:     6500000
 THIS IS TAKEN AS THE MAXIMUM OF THE UNUSED MEMORY REQUESTED
 IN GAMESS $SYSTEM BLOCK AND MEMORY REQUESTED IN VB2000 DATA

 Input of molecule
 =================
 #! VB(4)/GEN PRINTALL                                                           
                                                                                 
 Title: Selenium dihydride - SBKJC                                                      

 Charge =  0 Multiplicity =  1

 ATOM      ATOMIC                      COORDINATES (ANGS)
           CHARGE         X                   Y                   Z
 SELENIUM   34.0     0.0000000000        0.0000000000       -0.2752608203
 HYDROGEN    1.0     0.0000000000       -1.0776417002        0.7241659336
 HYDROGEN    1.0     0.0000000000        1.0776417002        0.7241659336

 Hartree-Fock Energy from Gamess run =     -10.274227273915

 Basis set size =   12

                    PARAMETER LIMIT VALUES
 Max. no. of atoms                    MAXCEN =   200
 Max. no. of basis functions          MAXBFN =   726
 Max. no. of shells                   MAXSHL =   500
 Max. no. of total primitives         MAXEXP =  1000
 Max. no. of primitives per orbital   MAXPRM =    15
 Max. no. of atoms * no. of orbitals  MAXNAB = 72600
 Increase max basis set size by       NEXTRA =    20
 Max. size for Rumer data             MAXST1 = 33334
 Max. no. of orbitals in group        MAXNOB =   200
 Max. no. of CUBE orbitals            MAXCUB =   100
 Max. no. of groups                   MAXGRP =    99

 BASIS IN $BASIS IS SBKJC   

 VBO LIB NOT AVAILABLE FOR GBASIS = SBKJC   
 ALL FUNCTIONALITY RELATED TO LIB VBO WILL BE DISABLED

 Molecular orbitals by HF method
 ===============================================================================
 MO#                       1         2         3         4         5         6
 E(a.u.)              -0.959    -0.560    -0.469    -0.361     0.130     0.162
 -------------------------------------------------------------------------------

   1  1 Se     s    -0.78693   0.00000  -0.35321   0.00000   0.00000  -0.35754
   2  1 Se     x     0.00000   0.00000   0.00000  -0.78071   0.00000   0.00000
   3  1 Se     y     0.00000   0.52428   0.00000   0.00000   0.44604   0.00000
   4  1 Se     z    -0.11528   0.00000   0.59596   0.00000   0.00000  -0.41332
   5  1 Se     s    -0.06473   0.00000  -0.28993   0.00000   0.00000  -1.86326
   6  1 Se     x     0.00000   0.00000   0.00000  -0.29694   0.00000   0.00000
   7  1 Se     y     0.00000   0.00016   0.00000   0.00000   1.24155   0.00000
   8  1 Se     z     0.01168   0.00000   0.06673   0.00000   0.00000  -1.46551
   9  2  H     s    -0.16536  -0.32698   0.22212   0.00000   0.20211   0.15690
  10  2  H     s    -0.02271  -0.18551   0.18916   0.00000   1.12246   1.67222
  11  3  H     s    -0.16536   0.32698   0.22212   0.00000  -0.20211   0.15690
  12  3  H     s    -0.02271   0.18551   0.18916   0.00000  -1.12246   1.67222

 MO#                       7         8         9
 E(a.u.)               0.302     0.309     0.334
 -------------------------------------------------------------------------------

   1  1 Se     s     0.00000  -0.01866   0.00000
   2  1 Se     x     0.00000   0.00000   1.06304
   3  1 Se     y    -1.03648   0.00000   0.00000
   4  1 Se     z     0.00000   1.02137   0.00000
   5  1 Se     s     0.00000  -0.05342   0.00000
   6  1 Se     x     0.00000   0.00000  -1.28506
   7  1 Se     y     1.15844   0.00000   0.00000
   8  1 Se     z     0.00000  -1.31137   0.00000
   9  2  H     s     0.10344   0.09322   0.00000
  10  2  H     s    -0.17467  -0.00371   0.00000
  11  3  H     s    -0.10344   0.09322   0.00000
  12  3  H     s     0.17467  -0.00371   0.00000


 Localized molecular orbitals and the bond labels
 ===============================================================================
 LMO#                      1         2         3         4
 E(a.u.)              -0.750    -0.361    -0.619    -0.619
 Bond Label            1:(0)     1:(0)    2-1(1)    3-1(1)
 -------------------------------------------------------------------------------

   1  1 Se     s    -0.82649   0.00001   0.17455   0.17455
   2  1 Se     x    -0.00001  -0.78071   0.00000   0.00000
   3  1 Se     y    -0.00000  -0.00000  -0.37072   0.37072
   4  1 Se     z     0.30217  -0.00000   0.37226   0.37226
   5  1 Se     s    -0.23846   0.00000  -0.12528  -0.12528
   6  1 Se     x    -0.00000  -0.29694   0.00000   0.00000
   7  1 Se     y    -0.00000  -0.00000  -0.00011   0.00011
   8  1 Se     z     0.05244  -0.00000   0.03032   0.03032
   9  2  H     s     0.01997  -0.00000   0.42651  -0.03591
  10  2  H     s     0.10641  -0.00000   0.24292  -0.01943
  11  3  H     s     0.01997  -0.00000  -0.03591   0.42651
  12  3  H     s     0.10641  -0.00000  -0.01943   0.24292


 Mulliken population of localized molecular orbitals
 ===============================================================================
 LMO#                      1         2         3         4
 E(a.u.)              -0.750    -0.361    -0.619    -0.619
 Bond Label            1:(0)     1:(0)    2-1(1)    3-1(1)
 -------------------------------------------------------------------------------

   1        Se       2.13582   2.00000   0.92552   0.92552
   2         H      -0.06791  -0.00000   1.07859  -0.00411
   3         H      -0.06791  -0.00000  -0.00411   1.07859


 PARTITIONING OF LMOs INTO GROUPS ($LMOGRP)
 =======================================================================
 LMO#     1  2  3  4
 Group#   1  1  2  2
 Split    0  0  1  1



 Initial guess of orbitals
 ===============================================================================
 ORBITAL#                  1         2         3         4         5         6
 Bond Label            1:(0)     1:(0)    2-1(1)    2-1(1)    3-1(1)    3-1(1)
 -------------------------------------------------------------------------------

   1  1 Se     s    -0.82649   0.00001  -0.14810   0.47609  -0.14810   0.47609
   2  1 Se     x    -0.00001  -0.78071   0.00000   0.00000   0.00000   0.00000
   3  1 Se     y    -0.00000  -0.00000  -0.00000  -0.68567  -0.00000   0.68567
   4  1 Se     z     0.30217  -0.00000   0.05415   0.63248   0.05415   0.63248
   5  1 Se     s    -0.23846   0.00000  -0.04273  -0.18749  -0.04273  -0.18749
   6  1 Se     x    -0.00000  -0.29694   0.00000   0.00000   0.00000   0.00000
   7  1 Se     y    -0.00000  -0.00000  -0.00000  -0.00020  -0.00000   0.00020
   8  1 Se     z     0.05244  -0.00000   0.00940   0.04636   0.00940   0.04636
   9  2  H     s     0.01997  -0.00000   0.70390  -0.00370   0.00358  -0.00370
  10  2  H     s     0.10641  -0.00000   0.41793  -0.01973   0.01907  -0.01973
  11  3  H     s     0.01997  -0.00000   0.00358  -0.00370   0.70390  -0.00370
  12  3  H     s     0.10641  -0.00000   0.01907  -0.01973   0.41793  -0.01973


      GENERAL CONTROLS ($GENCTL)
 ====================================
 Number of electron groups       =    2
 Maximum macro-iterations        =   12
 Energy threshold           = 10**(- 6)
 Restart calculation(0/1/2)      =    0
 Group#                     1  2
 Num. of electrons          4  4
 Num. of spins              0  0
 Num. of orbitals           2  4
 Method#                    1  2

 SYMBOLIC VB STRUCTURE(S) OF GROUP  2
 STR. NO.       RUMER PATTERN  
    1           1  2   3  4


 MAP FILE IS: /home/brian/qchem/gamess/vb2000/MAP/MAP0400t                                    

 VB-ORBITAL OPTIMIZATION OF GROUP  2 ...
 GROUP =  2  ITER =  1 CMAX =  0.13809443832805
 GROUP =  2  ITER =  2 CMAX =  0.09115859375926
 GROUP =  2  ITER =  3 CMAX =  0.05759034416958
 GROUP =  2  ITER =  4 CMAX =  0.02896785129462
 GROUP =  2  ITER =  5 CMAX =  0.01857584286735
 GROUP =  2  ITER =  6 CMAX =  0.00237891179784
 GROUP =  2  ITER =  7 CMAX =  0.00051069378270

 ENERGY AND DIFF OF MACROITER    1 =    -10.29958344    -10.29958344

 VB-ORBITAL OPTIMIZATION OF GROUP  2 ...
 GROUP =  2  ITER =  1 CMAX =  0.03552393567851
 GROUP =  2  ITER =  2 CMAX =  0.04053130455458
 GROUP =  2  ITER =  3 CMAX =  0.00334688923754
 GROUP =  2  ITER =  4 CMAX =  0.00016099814163

 ENERGY AND DIFF OF MACROITER    2 =    -10.30730120     -0.00771775

 VB-ORBITAL OPTIMIZATION OF GROUP  2 ...
 GROUP =  2  ITER =  1 CMAX =  0.02334412529120
 GROUP =  2  ITER =  2 CMAX =  0.02865047115585
 GROUP =  2  ITER =  3 CMAX =  0.00275864623467
 GROUP =  2  ITER =  4 CMAX =  0.00687637875367
 GROUP =  2  ITER =  5 CMAX =  0.00041821217564

 ENERGY AND DIFF OF MACROITER    3 =    -10.31247424     -0.00517304

 VB-ORBITAL OPTIMIZATION OF GROUP  2 ...
 GROUP =  2  ITER =  1 CMAX =  0.00536025748087
 GROUP =  2  ITER =  2 CMAX =  0.00363883731184
 GROUP =  2  ITER =  3 CMAX =  0.00053033872883

 ENERGY AND DIFF OF MACROITER    4 =    -10.31296555     -0.00049131

 VB-ORBITAL OPTIMIZATION OF GROUP  2 ...
 GROUP =  2  ITER =  1 CMAX =  0.00156695933064
 GROUP =  2  ITER =  2 CMAX =  0.00140166242376
 GROUP =  2  ITER =  3 CMAX =  0.00003900360436

 ENERGY AND DIFF OF MACROITER    5 =    -10.31299721     -0.00003167

 VB-ORBITAL OPTIMIZATION OF GROUP  2 ...
 GROUP =  2  ITER =  1 CMAX =  0.00051344872823

 ENERGY AND DIFF OF MACROITER    6 =    -10.31300111     -0.00000390

 VB-ORBITAL OPTIMIZATION OF GROUP  2 ...
 GROUP =  2  ITER =  1 CMAX =  0.00035905005224

 ENERGY AND DIFF OF MACROITER    7 =    -10.31300159     -0.00000048

 VB-ORBITAL OPTIMIZATION OF GROUP  2 ...
 GROUP =  2  ITER =  1 CMAX =  0.00024339790562


 OVERLAP MATRIX OF VB ORBITALS FOR GROUP   2

        1      2      3      4
 ===============================
   1 1.0000
   2 0.7668 1.0000
   3 0.0338 0.0903 1.0000
   4 0.0903 0.1149 0.7668 1.0000

 ENERGY AND DIFF OF MACROITER    8 =    -10.31300169     -0.00000010


 MULLIKEN CHARGES ON ATOMS
 -------------------------
  ATOM             CHARGE 

    1            27.98347
    2             0.00827
    3             0.00827

 -------------------------


 ORBITALS OF EACH ELECTRON GROUP IN AO BASIS: ORBITAL(GROUP)
 ===========================================================================
    Orbital#             1         2         3         4         5         6
      Group#             1         1         2         2         2         2
 ---------------------------------------------------------------------------
  AO# LABELS
   1  1 Se     s  -0.86589   0.00001  -0.13510   0.05772  -0.13510   0.05772
   2  1 Se     x   0.00001   0.77938  -0.00000  -0.00000  -0.00000  -0.00000
   3  1 Se     y   0.00000  -0.00000  -0.11698  -0.55132   0.11698   0.55132
   4  1 Se     z   0.09466  -0.00000   0.20655   0.61695   0.20655   0.61695
   5  1 Se     s  -0.17446   0.00000  -0.26073  -0.07846  -0.26073  -0.07846
   6  1 Se     x   0.00000   0.29855  -0.00000  -0.00000  -0.00000  -0.00000
   7  1 Se     y  -0.00000  -0.00000   0.02951  -0.04121  -0.02951   0.04121
   8  1 Se     z   0.02681  -0.00000  -0.00973   0.08746  -0.00973   0.08746
   9  2  H     s  -0.06849   0.00000   0.73070   0.07760  -0.02444  -0.00977
  10  2  H     s   0.05439  -0.00000   0.32218   0.13793   0.04603  -0.01005
  11  3  H     s  -0.06849   0.00000  -0.02444  -0.00977   0.73070   0.07760
  12  3  H     s   0.05439  -0.00000   0.04603  -0.01005   0.32218   0.13793


 CUBE FILE HEADERS

  SeH2 SBKJC                             
 SCF Molecular Orbitals
  -3   -6.000000   -8.036448   -6.520168
   8    1.714286    0.000000    0.000000
   8    0.000000    2.296128    0.000000
   8    0.000000    0.000000    1.984092
  34    6.000000    0.000000    0.000000   -0.520168
   1    1.000000    0.000000   -2.036448    1.368475
   1    1.000000    0.000000    2.036448    1.368475
   1   3


 NORMALIZATION OF ORBITAL  3 IS:    0.785900
 NORMALIZATION SUGGESTS YOU NEED MORE CUBE POINTS,
 BUT VALUE WITH INNER CORE ELECTRONS CAN BE TOO LOW.
 CUBE FILE FOR ORBITAL   3 CREATED AS exam-vb18-orb-003.cube                                          

 NORMALIZATION OF ORBITAL  4 IS:    1.050747
 NORMALIZATION SUGGESTS YOU NEED MORE CUBE POINTS,
 BUT VALUE WITH INNER CORE ELECTRONS CAN BE TOO LOW.
 CUBE FILE FOR ORBITAL   4 CREATED AS exam-vb18-orb-004.cube                                          

 TIME FOR CUBE =   0.000

 CALCULATION OF POSITION AND EXTENT OF VB ORBITALS

 DEFAULT CENTROIDS AND EXTENTS.

 MOLECULAR GEOMETRY ABOUT CENTER OF MASS

  Atom#   ATOMIC NO.     X        Y        Z
    1        34        0.0000   0.0000  -0.0246
    2         1        0.0000  -1.0776   0.9748
    3         1        0.0000   1.0776   0.9748

 CENTROIDS OF CHARGE FOR EACH VB GROUP & DISTANCES FROM 3 ATOMS

                                                  DISTANCES FROM ATOMS
 Orbital#   Group#       X        Y        Z        1        2        3
    3         2        0.0000  -0.8932   0.7896   1.2086   0.2614   1.9795
    4         2       -0.0000  -0.1610   0.1325   0.2249   1.2449   1.4979
    5         2        0.0000   0.8932   0.7896   1.2086   1.9795   0.2614
    6         2       -0.0000   0.1610   0.1325   0.2249   1.4979   1.2449

 EXTENT OF ORBITAL MEASURED BY (<R**2>)

 Orbital#   Group#     <X**2>   <Y**2>   <Z**2>   <R**2> Sqrt<R**2>

    3         2        0.2005   0.4123   0.4790   1.0918   1.0449
    4         2        0.2965   0.6062   0.6782   1.5809   1.2573
    5         2        0.2005   0.4123   0.4790   1.0918   1.0449
    6         2        0.2965   0.6062   0.6782   1.5809   1.2573

 WORDS OF DYNAMIC MEMORY USED IN VB2000 CODE ONLY:        7945
 NOTE THAT THIS IS IN ADDITION TO MEMORY USED BY GAMESS
 PRINTED NEAR END OF OUTPUT. ADD THE TWO AMOUNTS TO GIVE
 THE TOTAL MEMORY USED BY THE JOB

 STATISTICS OF CPU TIMES (SECONDS)
 CPU TIME FOR INITIALIZATION        0.000
 CPU TIME FOR MACROITERATION        0.060
 TOTAL CPU TIME                     0.060

 STEP CPU TIME =     0.12 TOTAL CPU TIME =        0.1 (    0.0 MIN)
 TOTAL WALL CLOCK TIME=        0.1 SECONDS, CPU UTILIZATION IS 100.00%

 **************************************************************
 *                                                            *
 *                  ENDING GAMESS(US) VB2000                  *
 *                                                            *
 *  Properties for individual molecular orbitals are correct  *
 *   only for VB modified orbitals in a Hartree-Fock group.   *
 *                                                            *
 **************************************************************

     ----------------------------------
     PROPERTIES FOR THE VB WAVEFUNCTION
     ----------------------------------

          -----------------
          ENERGY COMPONENTS
          -----------------

         WAVEFUNCTION NORMALIZATION =       1.0000000000

                ONE ELECTRON ENERGY =     -24.9636402374
                TWO ELECTRON ENERGY =      10.0845642912
           NUCLEAR REPULSION ENERGY =       4.5660742565
                                      ------------------
                       TOTAL ENERGY =     -10.3130016898

 ELECTRON-ELECTRON POTENTIAL ENERGY =      10.0845642912
  NUCLEUS-ELECTRON POTENTIAL ENERGY =     -29.2556092303
   NUCLEUS-NUCLEUS POTENTIAL ENERGY =       4.5660742565
                                      ------------------
             TOTAL POTENTIAL ENERGY =     -14.6049706827
               TOTAL KINETIC ENERGY =       4.2919689929
                 VIRIAL RATIO (V/T) =       3.4028602506

          ---------------------------------------
          MULLIKEN AND LOWDIN POPULATION ANALYSES
          ---------------------------------------

     ATOMIC MULLIKEN POPULATION IN EACH MOLECULAR ORBITAL

                      1          2          3          4

                  2.000000   2.000000   2.000000   2.000000

    1             2.032949   2.000000   1.450641   2.000000
    2            -0.016474  -0.000000   0.274679   0.000000
    3            -0.016475  -0.000000   0.274679   0.000000

               ----- POPULATIONS IN EACH AO -----
                             MULLIKEN      LOWDIN
              1  SE 1  S      1.70555     1.32166
              2  SE 1  X      1.51830     1.39297
              3  SE 1  Y      0.89774     0.76099
              4  SE 1  Z      1.07648     0.94659
              5  SE 1  S      0.23267     0.43379
              6  SE 1  X      0.48170     0.60703
              7  SE 1  Y      0.01432     0.22500
              8  SE 1  Z      0.08976     0.34802
              9  H  2  S      0.72575     0.65614
             10  H  2  S      0.26598     0.32583
             11  H  3  S      0.72575     0.65614
             12  H  3  S      0.26598     0.32583

          ----- MULLIKEN ATOMIC OVERLAP POPULATIONS -----
          (OFF-DIAGONAL ELEMENTS NEED TO BE MULTIPLIED BY 2)

             1           2           3

    1    5.6767282
    2    0.1699010   0.8214897
    3    0.1699010   0.0003442   0.8214897

          TOTAL MULLIKEN AND LOWDIN ATOMIC POPULATIONS
       ATOM         MULL.POP.    CHARGE          LOW.POP.     CHARGE
    1 SELENIUM      6.016530   -0.016530         6.036055   -0.036055
    2 HYDROGEN      0.991735    0.008265         0.981973    0.018027
    3 HYDROGEN      0.991735    0.008265         0.981973    0.018027

          -------------------------------
          BOND ORDER AND VALENCE ANALYSIS     BOND ORDER THRESHOLD=0.050
          -------------------------------

                   BOND                       BOND                       BOND
  ATOM PAIR DIST  ORDER      ATOM PAIR DIST  ORDER      ATOM PAIR DIST  ORDER
    1   2  1.470  0.865        1   3  1.470  0.865

                       TOTAL       BONDED        FREE
      ATOM            VALENCE     VALENCE     VALENCE
    1 SELENIUM          1.857       1.729       0.127
    2 HYDROGEN          0.939       0.867       0.072
    3 HYDROGEN          0.939       0.867       0.072

          ---------------------
          ELECTROSTATIC MOMENTS
          ---------------------

 POINT   1           X           Y           Z (BOHR)    CHARGE
                 0.000000    0.000000   -0.473704        0.00 (A.U.)
         DX          DY          DZ         /D/  (DEBYE)
    -0.000000   -0.000000    1.440391    1.440391
 ...... END OF PROPERTY EVALUATION ......
 STEP CPU TIME =     0.00 TOTAL CPU TIME =        0.1 (    0.0 MIN)
 TOTAL WALL CLOCK TIME=        0.1 SECONDS, CPU UTILIZATION IS 100.00%
               580000  WORDS OF DYNAMIC MEMORY USED
 EXECUTION OF GAMESS TERMINATED NORMALLY Mon Oct 14 07:29:40 2013
 DDI: 263624 bytes (0.3 MB / 0 MWords) used by master data server.

 ----------------------------------------
 CPU timing information for all processes
 ========================================
 0: 0.124 + 0.20 = 0.144
 ----------------------------------------
 ddikick.x: exited gracefully.
unset echo
----- accounting info -----
Files used on the master node titch-64 were:
-rw-r--r-- 1 brian brian    1178 Oct 14 07:29 /scr/brian/exam-vb18.F05
-rw-rw-r-- 1 brian brian  180016 Oct 14 07:29 /scr/brian/exam-vb18.F08
-rw-rw-r-- 1 brian brian 1668720 Oct 14 07:29 /scr/brian/exam-vb18.F10
-rw-rw-r-- 1 brian brian      88 Oct 14 07:29 /scr/brian/exam-vb18.TEMP02
-rw-rw-r-- 1 brian brian      88 Oct 14 07:29 /scr/brian/exam-vb18.TEMP03
-rw-rw-r-- 1 brian brian     448 Oct 14 07:29 /scr/brian/exam-vb18.TEMP04
-rw-rw-r-- 1 brian brian     810 Oct 14 07:29 /scr/brian/exam-vb18.V80
-rw-rw-r-- 1 brian brian       0 Oct 14 07:29 /scr/brian/exam-vb18.V82
-rw-rw-r-- 1 brian brian       0 Oct 14 07:29 /scr/brian/exam-vb18.V83
-rw-rw-r-- 1 brian brian    1520 Oct 14 07:29 /scr/brian/exam-vb18.V84
-rw-rw-r-- 1 brian brian   33528 Oct 14 07:29 /scr/brian/exam-vb18.V85
-rw-rw-r-- 1 brian brian  196592 Oct 14 07:29 /scr/brian/exam-vb18.V86
-rw-rw-r-- 1 brian brian  196592 Oct 14 07:29 /scr/brian/exam-vb18.V87
-rw-rw-r-- 1 brian brian     736 Oct 14 07:29 /scr/brian/exam-vb18.V88
-rw-rw-r-- 1 brian brian       0 Oct 14 07:29 /scr/brian/exam-vb18.V89
ls: No match.
ls: No match.
Mon Oct 14 07:29:43 EST 2013
0.072u 0.020s 0:03.29 2.7%	0+0k 8+32io 0pf+0w
