----- GAMESS execution script 'rungms' -----
This job is running on host titch-64
under operating system Linux at Mon Oct 14 07:27:24 EST 2013
Available scratch disk space (Kbyte units) at beginning of the job is
Filesystem     1K-blocks      Used Available Use% Mounted on
/dev/sda1      945022356 138262128 758755876  16% /
GAMESS temporary binary files will be written to /scr/brian
GAMESS supplementary output files will be written to /home/brian/scr
Copying input file exam-vb06.inp to your run's scratch directory...
cp tests/exam-vb06.inp /scr/brian/exam-vb06.F05
unset echo
/home/brian/qchem/gamess/ddikick.x /home/brian/qchem/gamess/gamess.01.x exam-vb06 -ddi 1 1 titch-64 -scr /scr/brian

 Distributed Data Interface kickoff program.
 Initiating 1 compute processes on 1 nodes to run the following command:
 /home/brian/qchem/gamess/gamess.01.x exam-vb06 

          ******************************************************
          *         GAMESS VERSION =  1 MAY 2013 (R1)          *
          *             FROM IOWA STATE UNIVERSITY             *
          * M.W.SCHMIDT, K.K.BALDRIDGE, J.A.BOATZ, S.T.ELBERT, *
          *   M.S.GORDON, J.H.JENSEN, S.KOSEKI, N.MATSUNAGA,   *
          *          K.A.NGUYEN, S.J.SU, T.L.WINDUS,           *
          *       TOGETHER WITH M.DUPUIS, J.A.MONTGOMERY       *
          *         J.COMPUT.CHEM.  14, 1347-1363(1993)        *
          **************** 64 BIT LINUX VERSION ****************

  SINCE 1993, STUDENTS AND POSTDOCS WORKING AT IOWA STATE UNIVERSITY
  AND ALSO IN THEIR VARIOUS JOBS AFTER LEAVING ISU HAVE MADE IMPORTANT
  CONTRIBUTIONS TO THE CODE:
     IVANA ADAMOVIC, CHRISTINE AIKENS, YURI ALEXEEV, POOJA ARORA,
     ANDREY ASADCHEV, ROB BELL, PRADIPTA BANDYOPADHYAY, JONATHAN BENTZ,
     BRETT BODE, GALINA CHABAN, WEI CHEN, CHEOL HO CHOI, PAUL DAY,
     ALBERT DEFUSCO, TIM DUDLEY, DMITRI FEDOROV, GRAHAM FLETCHER,
     MARK FREITAG, KURT GLAESEMANN, DAN KEMP, GRANT MERRILL,
     NORIYUKI MINEZAWA, JONATHAN MULLIN, TAKESHI NAGATA,
     SEAN NEDD, HEATHER NETZLOFF, BOSILJKA NJEGIC, RYAN OLSON, MIKE PAK,
     JIM SHOEMAKER, LYUDMILA SLIPCHENKO, SAROM SOK, JIE SONG,
     TETSUYA TAKETSUGU, SIMON WEBB, SOOHAENG YOO, FEDERICO ZAHARIEV

  ADDITIONAL CODE HAS BEEN PROVIDED BY COLLABORATORS IN OTHER GROUPS:
     IOWA STATE UNIVERSITY:
          JOE IVANIC, LAIMUTIS BYTAUTAS, KLAUS RUEDENBERG
     UNIVERSITY OF TOKYO: KIMIHIKO HIRAO, TAKAHITO NAKAJIMA,
          TAKAO TSUNEDA, MUNEAKI KAMIYA, SUSUMU YANAGISAWA,
          KIYOSHI YAGI, MAHITO CHIBA, SEIKEN TOKURA, NAOAKI KAWAKAMI
     UNIVERSITY OF AARHUS: FRANK JENSEN
     UNIVERSITY OF IOWA: VISVALDAS KAIRYS, HUI LI
     NATIONAL INST. OF STANDARDS AND TECHNOLOGY: WALT STEVENS, DAVID GARMER
     UNIVERSITY OF PISA: BENEDETTA MENNUCCI, JACOPO TOMASI
     UNIVERSITY OF MEMPHIS: HENRY KURTZ, PRAKASHAN KORAMBATH
     UNIVERSITY OF ALBERTA: TOBY ZENG, MARIUSZ KLOBUKOWSKI
     UNIVERSITY OF NEW ENGLAND: MARK SPACKMAN
     MIE UNIVERSITY: HIROAKI UMEDA
     MICHIGAN STATE UNIVERSITY:
          KAROL KOWALSKI, MARTA WLOCH, JEFFREY GOUR, JESSE LUTZ,
          WEI LI, PIOTR PIECUCH
     UNIVERSITY OF SILESIA: MONIKA MUSIAL, STANISLAW KUCHARSKI
     FACULTES UNIVERSITAIRES NOTRE-DAME DE LA PAIX:
          OLIVIER QUINET, BENOIT CHAMPAGNE
     UNIVERSITY OF CALIFORNIA - SANTA BARBARA: BERNARD KIRTMAN
     INSTITUTE FOR MOLECULAR SCIENCE:
          KAZUYA ISHIMURA, MICHIO KATOUDA, AND SHIGERU NAGASE
     UNIVERSITY OF NOTRE DAME: DAN CHIPMAN
     KYUSHU UNIVERSITY:
          HARUYUKI NAKANO,
          FENG LONG GU, JACEK KORCHOWIEC, MARCIN MAKOWSKI, AND YURIKO AOKI,
          HIROTOSHI MORI AND EISAKU MIYOSHI
     PENNSYLVANIA STATE UNIVERSITY:
          TZVETELIN IORDANOV, CHET SWALINA, JONATHAN SKONE,
          SHARON HAMMES-SCHIFFER
     WASEDA UNIVERSITY:
          MASATO KOBAYASHI, TOMOKO AKAMA, TSUGUKI TOUMA,
          TAKESHI YOSHIKAWA, YASUHIRO IKABATA, HIROMI NAKAI
     NANJING UNIVERSITY: SHUHUA LI
     UNIVERSITY OF NEBRASKA:
          PEIFENG SU, DEJUN SI, NANDUN THELLAMUREGE, YALI WANG, HUI LI
     UNIVERSITY OF ZURICH:
          ROBERTO PEVERATI, KIM BALDRIDGE
     N. COPERNICUS UNIVERSITY AND JACKSON STATE UNIVERSITY:
          MARIA BARYSZ

 EXECUTION OF GAMESS BEGUN Mon Oct 14 07:27:24 2013

            ECHO OF THE FIRST FEW INPUT CARDS -
 INPUT CARD>! GAMESS/VB2000 Test 6.                                                         
 INPUT CARD>! This run is similar to test 5, but adds a g function, and reduces the         
 INPUT CARD>! number of d and f functions for the sake of run time economy. Note            
 INPUT CARD>! that the g function has to be added to the $DATA group after obtaining        
 INPUT CARD>! the rest of the basis from the PUNCH (*.dat) file of a previous run.          
 INPUT CARD>! This means that a VBOLIB can not be used as it was in test 5. In              
 INPUT CARD>! practice this basis (2dfg,p) would not be used as it is unbalanced            
 INPUT CARD>! and would be replaced by perhaps (3d2fg,2p), but this makes the test          
 INPUT CARD>! more economical.                                                              
 INPUT CARD>!                                                                               
 INPUT CARD>! The final RHF energy is:-                                                     
 INPUT CARD>!                                                                               
 INPUT CARD>! RHF ENERGY IS -76.0506426605 AFTER  10 ITERATIONS                             
 INPUT CARD>!                                                                               
 INPUT CARD>! The final VB energy is:-                                                      
 INPUT CARD>!                                                                               
 INPUT CARD>! ENERGY AND DIFF OF MACROITER   11 =    -76.09294991     -0.00000046           
 INPUT CARD>!                                                                               
 INPUT CARD>! and the VB and HF dipole moments are 1.9765 and 2.0860 respectively.          
 INPUT CARD>!                                                                               
 INPUT CARD> $CONTRL SCFTYP=RHF COORD=UNIQUE VBTYP=VB2000 $END                              
 INPUT CARD> $SYSTEM KDIAG=3 TIMLIM=20 MEMORY=2300000 $END                                  
 INPUT CARD>-- KDIAG=3 is used here to give Jacobi diagonalisation, as ifort                
 INPUT CARD>-- compiles fail on the initial guess. This is a well known solution            
 INPUT CARD>-- to a well known problem.                                                     
 INPUT CARD> $GUESS  GUESS=HUCKEL $END                                                      
 INPUT CARD> $DATA                                                                          
 INPUT CARD>Water 6-311G(2dfg,p) VB2000 Test                                                
 INPUT CARD>C1       0                                                                      
 INPUT CARD>O           8.0      0.0000000000      0.0000000000      0.0000000000           
 INPUT CARD>   N311    6                                                                    
 INPUT CARD>   D       1                                                                    
 INPUT CARD>     1              2.5840000000  1.00000000                                    
 INPUT CARD>   D       1                                                                    
 INPUT CARD>     1              0.6460000000  1.00000000                                    
 INPUT CARD>   F       1                                                                    
 INPUT CARD>     1              1.4000000000  1.00000000                                    
 INPUT CARD>   G       1                                                                    
 INPUT CARD>     1              1.8460000000  1.00000000                                    
 INPUT CARD>                                                                                
 INPUT CARD>H           1.0      0.0000000000     -0.7572153434      0.5865355237           
 INPUT CARD>   N311    6                                                                    
 INPUT CARD>   P       1                                                                    
 INPUT CARD>     1              0.7500000000  1.00000000                                    
 INPUT CARD>                                                                                
 INPUT CARD>H           1.0      0.0000000000      0.7572153434      0.5865355237           
 INPUT CARD>   N311    6                                                                    
 INPUT CARD>   P       1                                                                    
 INPUT CARD>     1              0.7500000000  1.00000000                                    
 INPUT CARD>                                                                                
    2300000 WORDS OF MEMORY AVAILABLE


     RUN TITLE
     ---------
 Water 6-311G(2dfg,p) VB2000 Test                                                

 THE POINT GROUP OF THE MOLECULE IS C1      
 THE ORDER OF THE PRINCIPAL AXIS IS     0

 ATOM      ATOMIC                      COORDINATES (BOHR)
           CHARGE         X                   Y                   Z
 O           8.0     0.0000000000        0.0000000000        0.0000000000
 H           1.0     0.0000000000       -1.4309295127        1.1083914219
 H           1.0     0.0000000000        1.4309295127        1.1083914219

          INTERNUCLEAR DISTANCES (ANGS.)
          ------------------------------

                1 O          2 H          3 H     

   1 O       0.0000000    0.9578095 *  0.9578095 *
   2 H       0.9578095 *  0.0000000    1.5144307 *
   3 H       0.9578095 *  1.5144307 *  0.0000000  

  * ... LESS THAN  3.000


     ATOMIC BASIS SET
     ----------------
 THE CONTRACTED PRIMITIVE FUNCTIONS HAVE BEEN UNNORMALIZED
 THE CONTRACTED BASIS FUNCTIONS ARE NOW NORMALIZED TO UNITY

  SHELL TYPE  PRIMITIVE        EXPONENT          CONTRACTION COEFFICIENT(S)

 O         

      1   S       1          8588.5000000    0.001895150083
      1   S       2          1297.2300000    0.014385900631
      1   S       3           299.2960000    0.070732003103
      1   S       4            87.3771000    0.240001010530
      1   S       5            25.6789000    0.594797026097
      1   S       6             3.7400400    0.280802012320

      2   L       7            42.1175000    0.113889012440    0.036511397380
      2   L       8             9.6283700    0.920811100576    0.237152982984
      2   L       9             2.8533200   -0.003274470358    0.819701941186

      3   L      10             0.9056610    1.000000000000    1.000000000000

      4   L      11             0.2556110    1.000000000000    1.000000000000

      5   D      12             2.5840000    1.000000000000

      6   D      13             0.6460000    1.000000000000

      7   F      14             1.4000000    1.000000000000

      8   G      15             1.8460000    1.000000000000

 H         

      9   S      16            33.8650000    0.025493814541
      9   S      17             5.0947900    0.190373108582
      9   S      18             1.1587900    0.852161486043

     10   S      19             0.3258400    1.000000000000

     11   S      20             0.1027410    1.000000000000

     12   P      21             0.7500000    1.000000000000

 H         

     13   S      22            33.8650000    0.025493814541
     13   S      23             5.0947900    0.190373108582
     13   S      24             1.1587900    0.852161486043

     14   S      25             0.3258400    1.000000000000

     15   S      26             0.1027410    1.000000000000

     16   P      27             0.7500000    1.000000000000

 TOTAL NUMBER OF BASIS SET SHELLS             =   16
 NUMBER OF CARTESIAN GAUSSIAN BASIS FUNCTIONS =   62
 NUMBER OF ELECTRONS                          =   10
 CHARGE OF MOLECULE                           =    0
 SPIN MULTIPLICITY                            =    1
 NUMBER OF OCCUPIED ORBITALS (ALPHA)          =    5
 NUMBER OF OCCUPIED ORBITALS (BETA )          =    5
 TOTAL NUMBER OF ATOMS                        =    3
 THE NUCLEAR REPULSION ENERGY IS        9.1892146195

     $CONTRL OPTIONS
     ---------------
 SCFTYP=RHF          RUNTYP=ENERGY       EXETYP=RUN     
 MPLEVL=       0     CITYP =NONE         CCTYP =NONE         VBTYP =VB2000  
 DFTTYP=NONE         TDDFT =NONE    
 MULT  =       1     ICHARG=       0     NZVAR =       0     COORD =UNIQUE  
 PP    =NONE         RELWFN=NONE         LOCAL =NONE         NUMGRD=       F
 ISPHER=      -1     NOSYM =       0     MAXIT =      30     UNITS =ANGS    
 PLTORB=       F     MOLPLT=       F     AIMPAC=       F     FRIEND=        
 NPRINT=       7     IREST =       0     GEOM  =INPUT   
 NORMF =       0     NORMP =       0     ITOL  =      20     ICUT  =       9
 INTTYP=BEST         GRDTYP=BEST         QMTTOL= 1.0E-06

     $SYSTEM OPTIONS
     ---------------
  REPLICATED MEMORY=     2300000 WORDS (ON EVERY NODE).
 DISTRIBUTED MEMDDI=           0 MILLION WORDS IN AGGREGATE,
 MEMDDI DISTRIBUTED OVER   1 PROCESSORS IS           0 WORDS/PROCESSOR.
 TOTAL MEMORY REQUESTED ON EACH PROCESSOR=     2300000 WORDS.
 TIMLIM=          20.00 MINUTES, OR       0.0 DAYS.
 PARALL= F  BALTYP=  DLB     KDIAG=    3  COREFL= F
 MXSEQ2=     300 MXSEQ3=     150

          ----------------
          PROPERTIES INPUT
          ----------------

     MOMENTS            FIELD           POTENTIAL          DENSITY
 IEMOM =       1   IEFLD =       0   IEPOT =       0   IEDEN =       0
 WHERE =COMASS     WHERE =NUCLEI     WHERE =NUCLEI     WHERE =NUCLEI  
 OUTPUT=BOTH       OUTPUT=BOTH       OUTPUT=BOTH       OUTPUT=BOTH    
 IEMINT=       0   IEFINT=       0                     IEDINT=       0
                                                       MORB  =       0
          EXTRAPOLATION IN EFFECT
          SOSCF IN EFFECT
 ORBITAL PRINTING OPTION: NPREO=     1    62     2     1

     -------------------------------
     INTEGRAL TRANSFORMATION OPTIONS
     -------------------------------
     NWORD  =            0
     CUTOFF = 1.0E-09     MPTRAN =       0
     DIRTRF =       F     AOINTS =DUP     

          ----------------------
          INTEGRAL INPUT OPTIONS
          ----------------------
 NOPK  =       1 NORDER=       0 SCHWRZ=       F

     ------------------------------------------
     THE POINT GROUP IS C1 , NAXIS= 0, ORDER= 1
     ------------------------------------------

     DIMENSIONS OF THE SYMMETRY SUBSPACES ARE
 A   =   62

 ..... DONE SETTING UP THE RUN .....
 STEP CPU TIME =     0.00 TOTAL CPU TIME =        0.0 (    0.0 MIN)
 TOTAL WALL CLOCK TIME=        0.0 SECONDS, CPU UTILIZATION IS   0.00%

          ********************
          1 ELECTRON INTEGRALS
          ********************
 ...... END OF ONE-ELECTRON INTEGRALS ......
 STEP CPU TIME =     0.00 TOTAL CPU TIME =        0.0 (    0.0 MIN)
 TOTAL WALL CLOCK TIME=        0.0 SECONDS, CPU UTILIZATION IS   0.00%

          -------------
          GUESS OPTIONS
          -------------
          GUESS =HUCKEL            NORB  =       0          NORDER=       0
          MIX   =       F          PRTMO =       F          PUNMO =       F
          TOLZ  = 1.0E-08          TOLE  = 1.0E-05
          SYMDEN=       F          PURIFY=       F

 INITIAL GUESS ORBITALS GENERATED BY HUCKEL   ROUTINE.
 HUCKEL GUESS REQUIRES     30289 WORDS.

 SYMMETRIES FOR INITIAL GUESS ORBITALS FOLLOW.   BOTH SET(S).
     5 ORBITALS ARE OCCUPIED (    1 CORE ORBITALS).
     2=A        3=A        4=A        5=A        6=A        7=A        8=A   
     9=A       10=A       11=A       12=A       13=A       14=A       15=A   
 ...... END OF INITIAL ORBITAL SELECTION ......
 STEP CPU TIME =     0.00 TOTAL CPU TIME =        0.0 (    0.0 MIN)
 TOTAL WALL CLOCK TIME=        0.0 SECONDS, CPU UTILIZATION IS   0.00%

                    ----------------------
                    AO INTEGRAL TECHNOLOGY
                    ----------------------
     S,P,L SHELL ROTATED AXIS INTEGRALS, REPROGRAMMED BY
        KAZUYA ISHIMURA (IMS) AND JOSE SIERRA (SYNSTAR).
     S,P,D,L SHELL ROTATED AXIS INTEGRALS PROGRAMMED BY
        KAZUYA ISHIMURA (INSTITUTE FOR MOLECULAR SCIENCE).
     S,P,D,F,G SHELL TO TOTAL QUARTET ANGULAR MOMENTUM SUM 5,
        ERIC PROGRAM BY GRAHAM FLETCHER (ELORET AND NASA ADVANCED
        SUPERCOMPUTING DIVISION, AMES RESEARCH CENTER).
     S,P,D,F,G,L SHELL GENERAL RYS QUADRATURE PROGRAMMED BY
        MICHEL DUPUIS (PACIFIC NORTHWEST NATIONAL LABORATORY).

          --------------------
          2 ELECTRON INTEGRALS
          --------------------

 THE -PK- OPTION IS OFF, THE INTEGRALS ARE NOT IN SUPERMATRIX FORM.
 STORING   15000 INTEGRALS/RECORD ON DISK, USING 12 BYTES/INTEGRAL.
 TWO ELECTRON INTEGRAL EVALUATION REQUIRES  139861 WORDS OF MEMORY.
 II,JST,KST,LST =  1  1  1  1 NREC =         1 INTLOC =    1
 II,JST,KST,LST =  2  1  1  1 NREC =         1 INTLOC =    2
 II,JST,KST,LST =  3  1  1  1 NREC =         1 INTLOC =   34
 II,JST,KST,LST =  4  1  1  1 NREC =         1 INTLOC =  214
 II,JST,KST,LST =  5  1  1  1 NREC =         1 INTLOC =  776
 II,JST,KST,LST =  6  1  1  1 NREC =         1 INTLOC = 2864
 II,JST,KST,LST =  7  1  1  1 NREC =         1 INTLOC = 7967
 II,JST,KST,LST =  8  1  1  1 NREC =         2 INTLOC =12194
 II,JST,KST,LST =  9  1  1  1 NREC =         8 INTLOC = 2564
 II,JST,KST,LST = 10  1  1  1 NREC =        10 INTLOC = 7125
 II,JST,KST,LST = 11  1  1  1 NREC =        12 INTLOC =13914
 II,JST,KST,LST = 12  1  1  1 NREC =        15 INTLOC = 8036
 II,JST,KST,LST = 13  1  1  1 NREC =        24 INTLOC =  181
 II,JST,KST,LST = 14  1  1  1 NREC =        27 INTLOC = 3666
 II,JST,KST,LST = 15  1  1  1 NREC =        30 INTLOC = 9971
 II,JST,KST,LST = 16  1  1  1 NREC =        34 INTLOC = 4213
 TOTAL NUMBER OF NONZERO TWO-ELECTRON INTEGRALS =              671480
         45 INTEGRAL RECORDS WERE STORED ON DISK FILE  8.
  ...... END OF TWO-ELECTRON INTEGRALS .....
 STEP CPU TIME =     0.07 TOTAL CPU TIME =        0.1 (    0.0 MIN)
 TOTAL WALL CLOCK TIME=        0.1 SECONDS, CPU UTILIZATION IS  87.50%

          --------------------------
                 RHF SCF CALCULATION
          --------------------------

     NUCLEAR ENERGY =         9.1892146195
     MAXIT =   30     NPUNCH=    2
     EXTRAP=T  DAMP=F  SHIFT=F  RSTRCT=F  DIIS=F  DEM=F  SOSCF=T
     DENSITY MATRIX CONV=  1.00E-05
     SOSCF WILL OPTIMIZE     285 ORBITAL ROTATIONS, SOGTOL=   0.250
     MEMORY REQUIRED FOR RHF ITERS=     58916 WORDS.

 ITER EX DEM     TOTAL ENERGY        E CHANGE  DENSITY CHANGE     ORB. GRAD
   1  0  0      -75.7233790107   -75.7233790107   0.725886174   0.000000000
          ---------------START SECOND ORDER SCF---------------
   2  1  0      -76.0370090486    -0.3136300379   0.072166839   0.037431856
   3  2  0      -76.0494768226    -0.0124677740   0.034196432   0.011604806
   4  3  0      -76.0505801350    -0.0011033124   0.005634290   0.003377787
   5  4  0      -76.0506325516    -0.0000524166   0.001589552   0.001343124
   6  5  0      -76.0506419469    -0.0000093953   0.000269677   0.000299220
   7  6  0      -76.0506426392    -0.0000006923   0.000099012   0.000049673
   8  7  0      -76.0506426593    -0.0000000201   0.000013275   0.000010565
   9  8  0      -76.0506426604    -0.0000000011   0.000007081   0.000003709
  10  9  0      -76.0506426605    -0.0000000001   0.000001544   0.000000789

          -----------------
          DENSITY CONVERGED
          -----------------
     TIME TO FORM FOCK OPERATORS=       0.1 SECONDS (       0.0 SEC/ITER)
     TIME TO SOLVE SCF EQUATIONS=       0.0 SECONDS (       0.0 SEC/ITER)

 FINAL RHF ENERGY IS      -76.0506426605 AFTER  10 ITERATIONS

          ------------
          EIGENVECTORS
          ------------

                      1          2          3          4          5
                  -20.5449    -1.3404    -0.7045    -0.5727    -0.5007
                     A          A          A          A          A   
    1  O  1  S    0.551519  -0.114513   0.000000   0.038081   0.000000
    2  O  1  S    0.471222  -0.184744   0.000000   0.063947   0.000000
    3  O  1  X   -0.000000  -0.000000   0.000000  -0.000000   0.294158
    4  O  1  Y   -0.000000  -0.000000   0.229748  -0.000000   0.000000
    5  O  1  Z    0.003300   0.036452   0.000000   0.256352   0.000000
    6  O  1  S    0.006457   0.555734   0.000000  -0.186337   0.000000
    7  O  1  X   -0.000000  -0.000000   0.000000  -0.000000   0.427099
    8  O  1  Y   -0.000000  -0.000000   0.335610  -0.000000   0.000000
    9  O  1  Z   -0.006793   0.057888   0.000000   0.368998   0.000000
   10  O  1  S    0.001072   0.294126   0.000000  -0.326968   0.000000
   11  O  1  X   -0.000000  -0.000000   0.000000  -0.000000   0.472284
   12  O  1  Y   -0.000000  -0.000000   0.230911  -0.000000   0.000000
   13  O  1  Z    0.000336   0.021481   0.000000   0.356266   0.000000
   14  O  1 XX   -0.000409   0.004185   0.000000  -0.006346   0.000000
   15  O  1 YY   -0.000387   0.008209   0.000000  -0.001177   0.000000
   16  O  1 ZZ   -0.000387   0.007333   0.000000   0.003256   0.000000
   17  O  1 XY   -0.000000  -0.000000   0.000000  -0.000000   0.000000
   18  O  1 XZ   -0.000000  -0.000000   0.000000  -0.000000   0.004479
   19  O  1 YZ   -0.000000  -0.000000   0.010950  -0.000000   0.000000
   20  O  1 XX   -0.000492   0.031468   0.000000  -0.009863   0.000000
   21  O  1 YY   -0.000692   0.035587   0.000000  -0.007168   0.000000
   22  O  1 ZZ   -0.000669   0.037294   0.000000   0.032974   0.000000
   23  O  1 XY   -0.000000  -0.000000   0.000000  -0.000000   0.000000
   24  O  1 XZ   -0.000000  -0.000000   0.000000  -0.000000   0.028237
   25  O  1 YZ   -0.000000  -0.000000   0.015719  -0.000000   0.000000
   26  O  1 XXX  -0.000000  -0.000000   0.000000  -0.000000  -0.000184
   27  O  1 YYY  -0.000000  -0.000000   0.012329  -0.000000   0.000000
   28  O  1 ZZZ   0.003331   0.002877   0.000000   0.007922   0.000000
   29  O  1 XXY  -0.000000  -0.000000  -0.001791  -0.000000   0.000000
   30  O  1 XXZ   0.001484  -0.001098   0.000000  -0.001451   0.000000
   31  O  1 YYX  -0.000000  -0.000000   0.000000  -0.000000   0.008091
   32  O  1 YYZ   0.001567   0.008258   0.000000   0.006760   0.000000
   33  O  1 ZZX  -0.000000  -0.000000   0.000000  -0.000000   0.005092
   34  O  1 ZZY  -0.000000  -0.000000   0.005278  -0.000000   0.000000
   35  O  1 XYZ  -0.000000  -0.000000   0.000000  -0.000000   0.000000
   36  O  1XXXX  -0.000066  -0.007226   0.000000   0.000785   0.000000
   37  O  1YYYY  -0.000212  -0.000669   0.000000   0.002807   0.000000
   38  O  1ZZZZ  -0.000144  -0.004320   0.000000  -0.000454   0.000000
   39  O  1XXXY  -0.000000  -0.000000   0.000000  -0.000000   0.000000
   40  O  1XXXZ  -0.000000  -0.000000   0.000000  -0.000000  -0.002361
   41  O  1YYYX  -0.000000  -0.000000   0.000000  -0.000000   0.000000
   42  O  1YYYZ  -0.000000  -0.000000   0.008515  -0.000000   0.000000
   43  O  1ZZZX  -0.000000  -0.000000   0.000000  -0.000000  -0.001054
   44  O  1ZZZY  -0.000000  -0.000000   0.004367  -0.000000   0.000000
   45  O  1XXYY  -0.000095  -0.003787   0.000000   0.000800   0.000000
   46  O  1XXZZ  -0.000064  -0.004076   0.000000  -0.000924   0.000000
   47  O  1YYZZ  -0.000073   0.001961   0.000000   0.003609   0.000000
   48  O  1XXYZ  -0.000000  -0.000000   0.000794  -0.000000   0.000000
   49  O  1YYXZ  -0.000000  -0.000000   0.000000  -0.000000   0.001445
   50  O  1ZZXY  -0.000000  -0.000000   0.000000  -0.000000   0.000000
   51  H  2  S    0.000231   0.089247  -0.145994   0.086514   0.000000
   52  H  2  S    0.000235   0.073551  -0.199327   0.130187   0.000000
   53  H  2  S   -0.000111   0.007802  -0.059301   0.034266   0.000000
   54  H  2  X   -0.000000  -0.000000   0.000000  -0.000000   0.023551
   55  H  2  Y    0.000178   0.016765  -0.015846   0.018799   0.000000
   56  H  2  Z   -0.000096  -0.010221   0.022844   0.006610   0.000000
   57  H  3  S    0.000231   0.089247   0.145994   0.086514   0.000000
   58  H  3  S    0.000235   0.073551   0.199327   0.130187   0.000000
   59  H  3  S   -0.000111   0.007802   0.059301   0.034266   0.000000
   60  H  3  X   -0.000000  -0.000000   0.000000  -0.000000   0.023551
   61  H  3  Y   -0.000178  -0.016765  -0.015846  -0.018799   0.000000
   62  H  3  Z   -0.000096  -0.010221  -0.022844   0.006610   0.000000

                      6          7          8          9         10
                    0.1410     0.2173     0.5498     0.6027     0.8235
                     A          A          A          A          A   
    1  O  1  S   -0.030523   0.000000   0.000000   0.038572   0.065975
    2  O  1  S   -0.061522   0.000000   0.000000   0.057932   0.058190
    3  O  1  X   -0.000000   0.000000   0.000000   0.000000  -0.000000
    4  O  1  Y   -0.000000  -0.121050   0.114452   0.000000  -0.000000
    5  O  1  Z    0.078534   0.000000   0.000000  -0.095593   0.105682
    6  O  1  S   -0.125189   0.000000   0.000000  -0.325921  -2.039388
    7  O  1  X   -0.000000   0.000000   0.000000   0.000000  -0.000000
    8  O  1  Y   -0.000000  -0.140158   0.164715   0.000000  -0.000000
    9  O  1  Z    0.098021   0.000000   0.000000  -0.150453   0.236661
   10  O  1  S    1.499188   0.000000   0.000000  -1.108189   5.219132
   11  O  1  X   -0.000000   0.000000   0.000000   0.000000  -0.000000
   12  O  1  Y   -0.000000  -0.510822   1.454045   0.000000  -0.000000
   13  O  1  Z    0.228635   0.000000   0.000000  -1.230704   0.042947
   14  O  1 XX   -0.008349   0.000000   0.000000  -0.022517  -0.051358
   15  O  1 YY   -0.009074   0.000000   0.000000   0.006715  -0.058819
   16  O  1 ZZ   -0.007006   0.000000   0.000000  -0.008570  -0.051776
   17  O  1 XY   -0.000000   0.000000   0.000000   0.000000  -0.000000
   18  O  1 XZ   -0.000000   0.000000   0.000000   0.000000  -0.000000
   19  O  1 YZ   -0.000000   0.000135  -0.021530   0.000000  -0.000000
   20  O  1 XX   -0.184357   0.000000   0.000000  -0.015121  -1.148326
   21  O  1 YY   -0.225402   0.000000   0.000000  -0.258550  -1.218370
   22  O  1 ZZ   -0.200615   0.000000   0.000000  -0.235858  -1.208662
   23  O  1 XY   -0.000000   0.000000   0.000000   0.000000  -0.000000
   24  O  1 XZ   -0.000000   0.000000   0.000000   0.000000  -0.000000
   25  O  1 YZ   -0.000000  -0.005070   0.273812   0.000000  -0.000000
   26  O  1 XXX  -0.000000   0.000000   0.000000   0.000000  -0.000000
   27  O  1 YYY  -0.000000   0.000818   0.042506   0.000000  -0.000000
   28  O  1 ZZZ  -0.004980   0.000000   0.000000  -0.022591  -0.003086
   29  O  1 XXY  -0.000000   0.006738  -0.004334   0.000000  -0.000000
   30  O  1 XXZ  -0.003170   0.000000   0.000000  -0.000010   0.004035
   31  O  1 YYX  -0.000000   0.000000   0.000000   0.000000  -0.000000
   32  O  1 YYZ  -0.002504   0.000000   0.000000  -0.044845  -0.018281
   33  O  1 ZZX  -0.000000   0.000000   0.000000   0.000000  -0.000000
   34  O  1 ZZY  -0.000000   0.000249   0.026879   0.000000  -0.000000
   35  O  1 XYZ  -0.000000   0.000000   0.000000   0.000000  -0.000000
   36  O  1XXXX   0.007704   0.000000   0.000000  -0.016554   0.073486
   37  O  1YYYY   0.013537   0.000000   0.000000   0.029085   0.064928
   38  O  1ZZZZ   0.011296   0.000000   0.000000   0.027516   0.080571
   39  O  1XXXY  -0.000000   0.000000   0.000000   0.000000  -0.000000
   40  O  1XXXZ  -0.000000   0.000000   0.000000   0.000000  -0.000000
   41  O  1YYYX  -0.000000   0.000000   0.000000   0.000000  -0.000000
   42  O  1YYYZ  -0.000000  -0.005064  -0.032381   0.000000  -0.000000
   43  O  1ZZZX  -0.000000   0.000000   0.000000   0.000000  -0.000000
   44  O  1ZZZY  -0.000000  -0.000419  -0.038069   0.000000  -0.000000
   45  O  1XXYY   0.005342   0.000000   0.000000   0.003428   0.043505
   46  O  1XXZZ   0.004969   0.000000   0.000000   0.003812   0.046583
   47  O  1YYZZ   0.010505   0.000000   0.000000   0.010640   0.035742
   48  O  1XXYZ  -0.000000   0.001726  -0.018653   0.000000  -0.000000
   49  O  1YYXZ  -0.000000   0.000000   0.000000   0.000000  -0.000000
   50  O  1ZZXY  -0.000000   0.000000   0.000000   0.000000  -0.000000
   51  H  2  S   -0.026621  -0.028380   0.111523   0.082451   0.046321
   52  H  2  S    0.089231   0.117024   1.759029   2.010988  -0.423857
   53  H  2  S   -0.918871  -1.558268  -0.755492  -0.682488  -0.429789
   54  H  2  X   -0.000000   0.000000   0.000000   0.000000  -0.000000
   55  H  2  Y    0.032588   0.006117   0.114194   0.113347   0.085053
   56  H  2  Z   -0.022029  -0.005509  -0.070824  -0.094203  -0.037283
   57  H  3  S   -0.026621   0.028380  -0.111523   0.082451   0.046321
   58  H  3  S    0.089231  -0.117024  -1.759029   2.010988  -0.423857
   59  H  3  S   -0.918871   1.558268   0.755492  -0.682488  -0.429789
   60  H  3  X   -0.000000   0.000000   0.000000   0.000000  -0.000000
   61  H  3  Y   -0.032588   0.006117   0.114194  -0.113347  -0.085053
   62  H  3  Z   -0.022029   0.005509   0.070824  -0.094203  -0.037283

                     11         12         13         14         15
                    0.9996     1.0100     1.0649     1.3482     1.3673
                     A          A          A          A          A   
    1  O  1  S    0.000000   0.027637   0.000000   0.006172   0.000000
    2  O  1  S    0.000000   0.033921   0.000000   0.007945   0.000000
    3  O  1  X   -0.271815  -0.000000   0.000000  -0.000000   0.000000
    4  O  1  Y    0.000000  -0.000000  -0.257436  -0.000000   0.000000
    5  O  1  Z    0.000000  -0.232040   0.000000   0.008749   0.000000
    6  O  1  S    0.000000  -0.943189   0.000000  -0.262120   0.000000
    7  O  1  X   -0.699564  -0.000000   0.000000  -0.000000   0.000000
    8  O  1  Y    0.000000  -0.000000  -0.596547  -0.000000   0.000000
    9  O  1  Z    0.000000  -0.574341   0.000000  -0.013755   0.000000
   10  O  1  S    0.000000   3.644208   0.000000   1.333044   0.000000
   11  O  1  X    1.150934  -0.000000   0.000000  -0.000000   0.000000
   12  O  1  Y    0.000000  -0.000000   2.196744  -0.000000   0.000000
   13  O  1  Z    0.000000   1.935738   0.000000   0.891106   0.000000
   14  O  1 XX    0.000000  -0.002478   0.000000   0.009296   0.000000
   15  O  1 YY    0.000000  -0.026789   0.000000   0.022228   0.000000
   16  O  1 ZZ    0.000000  -0.019777   0.000000  -0.042627   0.000000
   17  O  1 XY    0.000000  -0.000000   0.000000  -0.000000   0.038445
   18  O  1 XZ   -0.003833  -0.000000   0.000000  -0.000000   0.000000
   19  O  1 YZ    0.000000  -0.000000  -0.017815  -0.000000   0.000000
   20  O  1 XX    0.000000  -0.572197   0.000000   0.073595   0.000000
   21  O  1 YY    0.000000  -0.300443   0.000000   0.361345   0.000000
   22  O  1 ZZ    0.000000  -0.245918   0.000000  -0.696823   0.000000
   23  O  1 XY    0.000000  -0.000000   0.000000  -0.000000   0.680710
   24  O  1 XZ    0.071367  -0.000000   0.000000  -0.000000   0.000000
   25  O  1 YZ    0.000000  -0.000000   0.499389  -0.000000   0.000000
   26  O  1 XXX  -0.081291  -0.000000   0.000000  -0.000000   0.000000
   27  O  1 YYY   0.000000  -0.000000   0.007784  -0.000000   0.000000
   28  O  1 ZZZ   0.000000  -0.043859   0.000000   0.005498   0.000000
   29  O  1 XXY   0.000000  -0.000000  -0.038132  -0.000000   0.000000
   30  O  1 XXZ   0.000000  -0.033761   0.000000  -0.005899   0.000000
   31  O  1 YYX  -0.034441  -0.000000   0.000000  -0.000000   0.000000
   32  O  1 YYZ   0.000000   0.034854   0.000000   0.018759   0.000000
   33  O  1 ZZX  -0.034652  -0.000000   0.000000  -0.000000   0.000000
   34  O  1 ZZY   0.000000  -0.000000   0.034579  -0.000000   0.000000
   35  O  1 XYZ   0.000000  -0.000000   0.000000  -0.000000  -0.014896
   36  O  1XXXX   0.000000   0.043594   0.000000  -0.043260   0.000000
   37  O  1YYYY   0.000000   0.016099   0.000000  -0.090864   0.000000
   38  O  1ZZZZ   0.000000  -0.024708   0.000000   0.126837   0.000000
   39  O  1XXXY   0.000000  -0.000000   0.000000  -0.000000  -0.084333
   40  O  1XXXZ  -0.016771  -0.000000   0.000000  -0.000000   0.000000
   41  O  1YYYX   0.000000  -0.000000   0.000000  -0.000000  -0.097159
   42  O  1YYYZ   0.000000  -0.000000  -0.033646  -0.000000   0.000000
   43  O  1ZZZX  -0.015782  -0.000000   0.000000  -0.000000   0.000000
   44  O  1ZZZY   0.000000  -0.000000  -0.046762  -0.000000   0.000000
   45  O  1XXYY   0.000000   0.014393   0.000000  -0.031095   0.000000
   46  O  1XXZZ   0.000000   0.004002   0.000000   0.020932   0.000000
   47  O  1YYZZ   0.000000   0.007877   0.000000   0.028520   0.000000
   48  O  1XXYZ   0.000000  -0.000000  -0.027793  -0.000000   0.000000
   49  O  1YYXZ  -0.005435  -0.000000   0.000000  -0.000000   0.000000
   50  O  1ZZXY   0.000000  -0.000000   0.000000  -0.000000  -0.051175
   51  H  2  S    0.000000  -0.025811   0.036525   0.041590   0.000000
   52  H  2  S    0.000000  -1.139246   0.843320  -0.779703   0.000000
   53  H  2  S    0.000000  -0.319390   0.712627   0.050135   0.000000
   54  H  2  X   -0.026699  -0.000000   0.000000  -0.000000  -0.415306
   55  H  2  Y    0.000000  -0.247391   0.312695  -0.355508   0.000000
   56  H  2  Z    0.000000   0.200395  -0.258151  -0.273143   0.000000
   57  H  3  S    0.000000  -0.025811  -0.036525   0.041590   0.000000
   58  H  3  S    0.000000  -1.139246  -0.843320  -0.779703   0.000000
   59  H  3  S    0.000000  -0.319390  -0.712627   0.050135   0.000000
   60  H  3  X   -0.026699  -0.000000   0.000000  -0.000000   0.415306
   61  H  3  Y    0.000000   0.247391   0.312695   0.355508   0.000000
   62  H  3  Z    0.000000   0.200395   0.258151  -0.273143   0.000000

                     16         17         18         19         20
                    1.4693     1.7625     1.8060     1.9533     2.2497
                     A          A          A          A          A   
    1  O  1  S   -0.000000   0.000000   0.020059   0.000000   0.000000
    2  O  1  S   -0.000000   0.000000   0.041651   0.000000   0.000000
    3  O  1  X   -0.025034   0.000000  -0.000000   0.000000   0.000000
    4  O  1  Y   -0.000000  -0.012384  -0.000000  -0.029774   0.000000
    5  O  1  Z   -0.000000   0.000000  -0.036985   0.000000   0.000000
    6  O  1  S   -0.000000   0.000000  -0.383542   0.000000   0.000000
    7  O  1  X   -0.017506   0.000000  -0.000000   0.000000   0.000000
    8  O  1  Y   -0.000000   0.029985  -0.000000  -0.011875   0.000000
    9  O  1  Z   -0.000000   0.000000  -0.041836   0.000000   0.000000
   10  O  1  S   -0.000000   0.000000   2.346949   0.000000   0.000000
   11  O  1  X   -0.313112   0.000000  -0.000000   0.000000   0.000000
   12  O  1  Y   -0.000000   1.488180  -0.000000  -0.339180   0.000000
   13  O  1  Z   -0.000000   0.000000   1.330443   0.000000   0.000000
   14  O  1 XX   -0.000000   0.000000  -0.031757   0.000000   0.000000
   15  O  1 YY   -0.000000   0.000000   0.024075   0.000000   0.000000
   16  O  1 ZZ   -0.000000   0.000000   0.010728   0.000000   0.000000
   17  O  1 XY   -0.000000   0.000000  -0.000000   0.000000   0.017612
   18  O  1 XZ    0.039431   0.000000  -0.000000   0.000000   0.000000
   19  O  1 YZ   -0.000000   0.027044  -0.000000   0.007598   0.000000
   20  O  1 XX   -0.000000   0.000000  -1.360756   0.000000   0.000000
   21  O  1 YY   -0.000000   0.000000   1.089551   0.000000   0.000000
   22  O  1 ZZ   -0.000000   0.000000   0.446529   0.000000   0.000000
   23  O  1 XY   -0.000000   0.000000  -0.000000   0.000000   1.366906
   24  O  1 XZ    0.859687   0.000000  -0.000000   0.000000   0.000000
   25  O  1 YZ   -0.000000   1.450790  -0.000000   0.572318   0.000000
   26  O  1 XXX   0.012957   0.000000  -0.000000   0.000000   0.000000
   27  O  1 YYY  -0.000000   0.114876  -0.000000  -0.000576   0.000000
   28  O  1 ZZZ  -0.000000   0.000000   0.039556   0.000000   0.000000
   29  O  1 XXY  -0.000000   0.004368  -0.000000   0.003907   0.000000
   30  O  1 XXZ  -0.000000   0.000000  -0.010859   0.000000   0.000000
   31  O  1 YYX  -0.015462   0.000000  -0.000000   0.000000   0.000000
   32  O  1 YYZ  -0.000000   0.000000   0.085440   0.000000   0.000000
   33  O  1 ZZX   0.008769   0.000000  -0.000000   0.000000   0.000000
   34  O  1 ZZY  -0.000000   0.090148  -0.000000   0.042851   0.000000
   35  O  1 XYZ  -0.000000   0.000000  -0.000000   0.000000   0.012177
   36  O  1XXXX  -0.000000   0.000000   0.231451   0.000000   0.000000
   37  O  1YYYY  -0.000000   0.000000  -0.175612   0.000000   0.000000
   38  O  1ZZZZ  -0.000000   0.000000  -0.090844   0.000000   0.000000
   39  O  1XXXY  -0.000000   0.000000  -0.000000   0.000000  -0.180254
   40  O  1XXXZ  -0.112213   0.000000  -0.000000   0.000000   0.000000
   41  O  1YYYX  -0.000000   0.000000  -0.000000   0.000000  -0.139622
   42  O  1YYYZ  -0.000000  -0.115090  -0.000000  -0.087579   0.000000
   43  O  1ZZZX  -0.114788   0.000000  -0.000000   0.000000   0.000000
   44  O  1ZZZY  -0.000000  -0.144997  -0.000000  -0.035073   0.000000
   45  O  1XXYY  -0.000000   0.000000   0.004754   0.000000   0.000000
   46  O  1XXZZ  -0.000000   0.000000   0.036262   0.000000   0.000000
   47  O  1YYZZ  -0.000000   0.000000  -0.068058   0.000000   0.000000
   48  O  1XXYZ  -0.000000  -0.068209  -0.000000  -0.034600   0.000000
   49  O  1YYXZ  -0.064200   0.000000  -0.000000   0.000000   0.000000
   50  O  1ZZXY  -0.000000   0.000000  -0.000000   0.000000  -0.054909
   51  H  2  S   -0.000000  -0.323846   0.270520  -0.068931   0.000000
   52  H  2  S   -0.000000   2.186747  -2.150438   0.235609   0.000000
   53  H  2  S   -0.000000  -0.645761   0.359760  -0.183085   0.000000
   54  H  2  X    0.364845   0.000000  -0.000000   0.000000   0.812417
   55  H  2  Y   -0.000000   0.085469  -0.228142   0.508529   0.000000
   56  H  2  Z   -0.000000  -0.388593   0.136356   0.621219   0.000000
   57  H  3  S   -0.000000   0.323846   0.270520   0.068931   0.000000
   58  H  3  S   -0.000000  -2.186747  -2.150438  -0.235609   0.000000
   59  H  3  S   -0.000000   0.645761   0.359760   0.183085   0.000000
   60  H  3  X    0.364845   0.000000  -0.000000   0.000000  -0.812417
   61  H  3  Y   -0.000000   0.085469   0.228142   0.508529   0.000000
   62  H  3  Z   -0.000000   0.388593   0.136356  -0.621219   0.000000

                     21         22         23         24         25
                    2.2632     2.2917     2.5953     2.6338     2.8657
                     A          A          A          A          A   
    1  O  1  S   -0.000000  -0.027892   0.015153   0.000000  -0.092149
    2  O  1  S   -0.000000  -0.077596   0.046390   0.000000  -0.304081
    3  O  1  X    0.049256   0.000000  -0.000000   0.000000   0.000000
    4  O  1  Y   -0.000000   0.000000  -0.000000  -0.199077   0.000000
    5  O  1  Z   -0.000000  -0.056567   0.027934   0.000000   0.036903
    6  O  1  S   -0.000000  -0.816427  -0.157960   0.000000  -0.224478
    7  O  1  X    0.027275   0.000000  -0.000000   0.000000   0.000000
    8  O  1  Y   -0.000000   0.000000  -0.000000  -0.608625   0.000000
    9  O  1  Z   -0.000000  -0.299878  -0.014936   0.000000   0.173935
   10  O  1  S   -0.000000   0.384953   0.188079  -0.000000   6.022931
   11  O  1  X    0.616001   0.000000  -0.000000   0.000000   0.000000
   12  O  1  Y   -0.000000   0.000000  -0.000000  -1.040817   0.000000
   13  O  1  Z   -0.000000  -0.604509   0.831441   0.000000   1.138062
   14  O  1 XX   -0.000000  -0.037315   0.006912   0.000000  -0.107044
   15  O  1 YY   -0.000000  -0.001532   0.002029   0.000000  -0.096355
   16  O  1 ZZ   -0.000000  -0.015534   0.033483   0.000000  -0.093580
   17  O  1 XY   -0.000000   0.000000  -0.000000   0.000000   0.000000
   18  O  1 XZ    0.015981   0.000000  -0.000000   0.000000   0.000000
   19  O  1 YZ   -0.000000   0.000000  -0.000000   0.035295   0.000000
   20  O  1 XX   -0.000000  -1.079169   0.016176   0.000000  -2.248426
   21  O  1 YY   -0.000000  -1.008863  -1.136530   0.000000  -1.679656
   22  O  1 ZZ   -0.000000  -0.870050   1.643641   0.000000  -1.509608
   23  O  1 XY   -0.000000   0.000000  -0.000000   0.000000   0.000000
   24  O  1 XZ    1.148176   0.000000  -0.000000   0.000000   0.000000
   25  O  1 YZ   -0.000000   0.000000  -0.000000  -0.467956   0.000000
   26  O  1 XXX   0.000917   0.000000  -0.000000   0.000000   0.000000
   27  O  1 YYY  -0.000000   0.000000  -0.000000  -0.332277   0.000000
   28  O  1 ZZZ  -0.000000  -0.151635   0.005416   0.000000   0.028537
   29  O  1 XXY  -0.000000   0.000000  -0.000000  -0.004053   0.000000
   30  O  1 XXZ  -0.000000  -0.021706   0.011106   0.000000  -0.006075
   31  O  1 YYX  -0.000843   0.000000  -0.000000   0.000000   0.000000
   32  O  1 YYZ  -0.000000  -0.281029   0.002240   0.000000   0.114932
   33  O  1 ZZX   0.015878   0.000000  -0.000000   0.000000   0.000000
   34  O  1 ZZY  -0.000000   0.000000  -0.000000  -0.250152   0.000000
   35  O  1 XYZ  -0.000000   0.000000  -0.000000   0.000000   0.000000
   36  O  1XXXX  -0.000000   0.151863  -0.014269   0.000000   0.222304
   37  O  1YYYY  -0.000000  -0.038601   0.153920   0.000000   0.236394
   38  O  1ZZZZ  -0.000000   0.017404  -0.245481   0.000000   0.173751
   39  O  1XXXY  -0.000000   0.000000  -0.000000   0.000000   0.000000
   40  O  1XXXZ  -0.149331   0.000000  -0.000000   0.000000   0.000000
   41  O  1YYYX  -0.000000   0.000000  -0.000000   0.000000   0.000000
   42  O  1YYYZ  -0.000000   0.000000  -0.000000  -0.075431   0.000000
   43  O  1ZZZX  -0.131227   0.000000  -0.000000   0.000000   0.000000
   44  O  1ZZZY  -0.000000   0.000000  -0.000000  -0.046914   0.000000
   45  O  1XXYY  -0.000000   0.042374   0.059556   0.000000   0.127408
   46  O  1XXZZ  -0.000000   0.051754  -0.085510   0.000000   0.111605
   47  O  1YYZZ  -0.000000  -0.032065   0.000814   0.000000   0.142266
   48  O  1XXYZ  -0.000000   0.000000  -0.000000  -0.000326   0.000000
   49  O  1YYXZ  -0.030496   0.000000  -0.000000   0.000000   0.000000
   50  O  1ZZXY  -0.000000   0.000000  -0.000000   0.000000   0.000000
   51  H  2  S   -0.000000  -0.657871   0.065185   0.391938   0.136124
   52  H  2  S   -0.000000   2.135388  -0.419729  -2.169268  -1.430638
   53  H  2  S   -0.000000  -0.488616   0.068487   0.357455  -0.210758
   54  H  2  X   -0.882335   0.000000  -0.000000   0.000000   0.000000
   55  H  2  Y   -0.000000   0.765396  -0.611767  -1.131542  -0.642208
   56  H  2  Z   -0.000000  -0.679040  -0.796320   0.845983   0.262170
   57  H  3  S   -0.000000  -0.657871   0.065185  -0.391938   0.136124
   58  H  3  S   -0.000000   2.135388  -0.419729   2.169268  -1.430638
   59  H  3  S   -0.000000  -0.488616   0.068487  -0.357455  -0.210758
   60  H  3  X   -0.882335   0.000000  -0.000000   0.000000   0.000000
   61  H  3  Y   -0.000000  -0.765396   0.611767  -1.131542   0.642208
   62  H  3  Z   -0.000000  -0.679040  -0.796320  -0.845983   0.262170

                     26         27         28         29         30
                    3.1473     3.2338     4.8974     4.9036     4.9456
                     A          A          A          A          A   
    1  O  1  S    0.006395   0.000000   0.000000  -0.000000  -0.000508
    2  O  1  S    0.060731   0.000000   0.000000  -0.000000  -0.002770
    3  O  1  X    0.000000   0.000000   0.000000   0.248651   0.000000
    4  O  1  Y    0.000000   0.337932   0.000000  -0.000000   0.000000
    5  O  1  Z    0.346883   0.000000   0.000000  -0.000000  -0.199956
    6  O  1  S    0.674269   0.000000   0.000000  -0.000000   0.080031
    7  O  1  X    0.000000   0.000000   0.000000   0.216318   0.000000
    8  O  1  Y    0.000000   0.457686   0.000000  -0.000000   0.000000
    9  O  1  Z    0.538938   0.000000   0.000000  -0.000000  -0.146442
   10  O  1  S    0.650641  -0.000000   0.000000  -0.000000   0.082577
   11  O  1  X    0.000000   0.000000   0.000000   0.174521   0.000000
   12  O  1  Y    0.000000   1.634199   0.000000  -0.000000   0.000000
   13  O  1  Z    1.397252   0.000000   0.000000  -0.000000  -0.102079
   14  O  1 XX    0.052397   0.000000   0.000000  -0.000000  -0.010977
   15  O  1 YY    0.009699   0.000000   0.000000  -0.000000  -0.274491
   16  O  1 ZZ    0.039752   0.000000   0.000000  -0.000000   0.278509
   17  O  1 XY    0.000000   0.000000  -0.331961  -0.000000   0.000000
   18  O  1 XZ    0.000000   0.000000   0.000000  -0.315549   0.000000
   19  O  1 YZ    0.000000  -0.013324   0.000000  -0.000000   0.000000
   20  O  1 XX   -0.009339   0.000000   0.000000  -0.000000   0.042745
   21  O  1 YY    2.114705   0.000000   0.000000  -0.000000   1.184135
   22  O  1 ZZ    1.366175   0.000000   0.000000  -0.000000  -1.074023
   23  O  1 XY    0.000000   0.000000   1.169622  -0.000000   0.000000
   24  O  1 XZ    0.000000   0.000000   0.000000   1.091854   0.000000
   25  O  1 YZ    0.000000   1.831486   0.000000  -0.000000   0.000000
   26  O  1 XXX   0.000000   0.000000   0.000000  -0.183825   0.000000
   27  O  1 YYY   0.000000  -0.074350   0.000000  -0.000000   0.000000
   28  O  1 ZZZ   0.054909   0.000000   0.000000  -0.000000   0.598398
   29  O  1 XXY   0.000000   0.054599   0.000000  -0.000000   0.000000
   30  O  1 XXZ   0.019885   0.000000   0.000000  -0.000000  -0.016237
   31  O  1 YYX   0.000000   0.000000   0.000000  -0.264399   0.000000
   32  O  1 YYZ   0.035893   0.000000   0.000000  -0.000000  -0.113130
   33  O  1 ZZX   0.000000   0.000000   0.000000  -0.278470   0.000000
   34  O  1 ZZY   0.000000  -0.065344   0.000000  -0.000000   0.000000
   35  O  1 XYZ   0.000000   0.000000  -0.249663  -0.000000   0.000000
   36  O  1XXXX   0.079489   0.000000   0.000000  -0.000000  -0.031524
   37  O  1YYYY  -0.231788   0.000000   0.000000  -0.000000  -0.836499
   38  O  1ZZZZ  -0.123852   0.000000   0.000000  -0.000000   0.859479
   39  O  1XXXY   0.000000   0.000000  -0.630609  -0.000000   0.000000
   40  O  1XXXZ   0.000000   0.000000   0.000000  -0.607175   0.000000
   41  O  1YYYX   0.000000   0.000000  -0.658538  -0.000000   0.000000
   42  O  1YYYZ   0.000000  -0.175845   0.000000  -0.000000   0.000000
   43  O  1ZZZX   0.000000   0.000000   0.000000  -0.625283   0.000000
   44  O  1ZZZY   0.000000  -0.191677   0.000000  -0.000000   0.000000
   45  O  1XXYY  -0.063257   0.000000   0.000000  -0.000000  -0.242107
   46  O  1XXZZ  -0.018863   0.000000   0.000000  -0.000000   0.225234
   47  O  1YYZZ  -0.072889   0.000000   0.000000  -0.000000   0.025277
   48  O  1XXYZ   0.000000  -0.090625   0.000000  -0.000000   0.000000
   49  O  1YYXZ   0.000000   0.000000   0.000000  -0.292353   0.000000
   50  O  1ZZXY   0.000000   0.000000  -0.302649  -0.000000   0.000000
   51  H  2  S   -0.761403   1.033108   0.000000  -0.000000   0.030649
   52  H  2  S   -1.721591   0.832967   0.000000  -0.000000  -0.231479
   53  H  2  S    0.117949   0.362074   0.000000  -0.000000   0.061469
   54  H  2  X    0.000000   0.000000   0.078550  -0.060011   0.000000
   55  H  2  Y   -1.105289   0.644856   0.000000  -0.000000   0.036518
   56  H  2  Z    0.788139  -0.552520   0.000000  -0.000000   0.202428
   57  H  3  S   -0.761403  -1.033108   0.000000  -0.000000   0.030649
   58  H  3  S   -1.721591  -0.832967   0.000000  -0.000000  -0.231479
   59  H  3  S    0.117949  -0.362074   0.000000  -0.000000   0.061469
   60  H  3  X    0.000000   0.000000  -0.078550  -0.060011   0.000000
   61  H  3  Y    1.105289   0.644856   0.000000  -0.000000  -0.036518
   62  H  3  Z    0.788139   0.552520   0.000000  -0.000000   0.202428

                     31         32         33         34         35
                    5.0424     5.0454     5.1099     5.4124     5.4544
                     A          A          A          A          A   
    1  O  1  S   -0.000000   0.009060  -0.000000   0.009810  -0.000000
    2  O  1  S   -0.000000   0.014193  -0.000000   0.011099  -0.000000
    3  O  1  X   -0.695530   0.000000  -0.000000   0.000000   0.000625
    4  O  1  Y   -0.000000   0.000000  -0.133567   0.000000  -0.000000
    5  O  1  Z   -0.000000   0.119249  -0.000000  -0.509583  -0.000000
    6  O  1  S   -0.000000   0.135160  -0.000000   0.432542  -0.000000
    7  O  1  X   -0.604255   0.000000  -0.000000   0.000000   0.005381
    8  O  1  Y   -0.000000   0.000000  -0.101866   0.000000  -0.000000
    9  O  1  Z   -0.000000   0.063483  -0.000000  -0.424755  -0.000000
   10  O  1  S   -0.000000  -1.192687  -0.000000  -0.415924  -0.000000
   11  O  1  X   -0.359395   0.000000  -0.000000   0.000000  -0.015657
   12  O  1  Y   -0.000000   0.000000   0.489161   0.000000  -0.000000
   13  O  1  Z   -0.000000  -0.476679  -0.000000  -0.138016  -0.000000
   14  O  1 XX   -0.000000  -0.357904  -0.000000  -0.103231  -0.000000
   15  O  1 YY   -0.000000   0.175604  -0.000000   0.118830  -0.000000
   16  O  1 ZZ   -0.000000   0.170432  -0.000000  -0.046641  -0.000000
   17  O  1 XY   -0.000000   0.000000  -0.000000   0.000000  -0.000000
   18  O  1 XZ   -0.120179   0.000000  -0.000000   0.000000  -0.018550
   19  O  1 YZ   -0.000000   0.000000  -0.361102   0.000000  -0.000000
   20  O  1 XX   -0.000000   1.423143  -0.000000   0.493320  -0.000000
   21  O  1 YY   -0.000000  -0.549020  -0.000000   0.095692  -0.000000
   22  O  1 ZZ   -0.000000  -0.541288  -0.000000   0.550988  -0.000000
   23  O  1 XY   -0.000000   0.000000  -0.000000   0.000000  -0.000000
   24  O  1 XZ    0.397089   0.000000  -0.000000   0.000000   0.017507
   25  O  1 YZ   -0.000000   0.000000   1.436200   0.000000  -0.000000
   26  O  1 XXX   1.157938   0.000000  -0.000000   0.000000  -0.236355
   27  O  1 YYY  -0.000000   0.000000   0.165189   0.000000  -0.000000
   28  O  1 ZZZ  -0.000000  -0.090912  -0.000000   0.828709  -0.000000
   29  O  1 XXY  -0.000000   0.000000   0.363581   0.000000  -0.000000
   30  O  1 XXZ  -0.000000  -0.282231  -0.000000   0.990013  -0.000000
   31  O  1 YYX   0.378157   0.000000  -0.000000   0.000000  -0.687816
   32  O  1 YYZ  -0.000000   0.023918  -0.000000   0.142151  -0.000000
   33  O  1 ZZX   0.400567   0.000000  -0.000000   0.000000   0.994701
   34  O  1 ZZY  -0.000000   0.000000  -0.142869   0.000000  -0.000000
   35  O  1 XYZ  -0.000000   0.000000  -0.000000   0.000000  -0.000000
   36  O  1XXXX  -0.000000  -0.993647  -0.000000  -0.238065  -0.000000
   37  O  1YYYY  -0.000000   0.518364  -0.000000   0.340045  -0.000000
   38  O  1ZZZZ  -0.000000   0.511931  -0.000000  -0.063571  -0.000000
   39  O  1XXXY  -0.000000   0.000000  -0.000000   0.000000  -0.000000
   40  O  1XXXZ  -0.197267   0.000000  -0.000000   0.000000  -0.040030
   41  O  1YYYX  -0.000000   0.000000  -0.000000   0.000000  -0.000000
   42  O  1YYYZ  -0.000000   0.000000  -0.675099   0.000000  -0.000000
   43  O  1ZZZX  -0.204627   0.000000  -0.000000   0.000000  -0.004104
   44  O  1ZZZY  -0.000000   0.000000  -0.669948   0.000000  -0.000000
   45  O  1XXYY  -0.000000  -0.143420  -0.000000   0.016534  -0.000000
   46  O  1XXZZ  -0.000000  -0.152609  -0.000000  -0.075842  -0.000000
   47  O  1YYZZ  -0.000000   0.303270  -0.000000   0.085926  -0.000000
   48  O  1XXYZ  -0.000000   0.000000  -0.285967   0.000000  -0.000000
   49  O  1YYXZ  -0.096348   0.000000  -0.000000   0.000000  -0.024873
   50  O  1ZZXY  -0.000000   0.000000  -0.000000   0.000000  -0.000000
   51  H  2  S   -0.000000  -0.077141  -0.037543  -0.095158  -0.000000
   52  H  2  S   -0.000000   0.771839   0.711427  -0.395060  -0.000000
   53  H  2  S   -0.000000  -0.100735  -0.215723   0.104522  -0.000000
   54  H  2  X   -0.075147   0.000000  -0.000000   0.000000   0.022697
   55  H  2  Y   -0.000000   0.127551  -0.002168  -0.418583  -0.000000
   56  H  2  Z   -0.000000  -0.002685  -0.043825   0.231893  -0.000000
   57  H  3  S   -0.000000  -0.077141   0.037543  -0.095158  -0.000000
   58  H  3  S   -0.000000   0.771839  -0.711427  -0.395060  -0.000000
   59  H  3  S   -0.000000  -0.100735   0.215723   0.104522  -0.000000
   60  H  3  X   -0.075147   0.000000  -0.000000   0.000000   0.022697
   61  H  3  Y   -0.000000  -0.127551  -0.002168   0.418583  -0.000000
   62  H  3  Z   -0.000000  -0.002685   0.043825   0.231893  -0.000000

                     36         37         38         39         40
                    5.5311     5.7054     5.8135     5.8396     5.9122
                     A          A          A          A          A   
    1  O  1  S   -0.000000   0.000172  -0.000000   0.000000  -0.000000
    2  O  1  S   -0.000000   0.001887  -0.000000   0.000000  -0.000000
    3  O  1  X   -0.000000  -0.000000  -0.031957   0.000000  -0.000000
    4  O  1  Y   -0.435975  -0.000000  -0.000000  -0.179179  -0.000000
    5  O  1  Z   -0.000000  -0.176291  -0.000000   0.000000  -0.000000
    6  O  1  S   -0.000000   0.100427  -0.000000   0.000000  -0.000000
    7  O  1  X   -0.000000  -0.000000  -0.093804   0.000000  -0.000000
    8  O  1  Y   -0.355531  -0.000000  -0.000000  -0.187466  -0.000000
    9  O  1  Z   -0.000000  -0.178393  -0.000000   0.000000  -0.000000
   10  O  1  S   -0.000000   0.404555  -0.000000   0.000000  -0.000000
   11  O  1  X   -0.000000  -0.000000   0.204850   0.000000  -0.000000
   12  O  1  Y   -0.208443  -0.000000  -0.000000   0.340166  -0.000000
   13  O  1  Z   -0.000000   0.382071  -0.000000   0.000000  -0.000000
   14  O  1 XX   -0.000000   0.038144  -0.000000   0.000000  -0.000000
   15  O  1 YY   -0.000000   0.130508  -0.000000   0.000000  -0.000000
   16  O  1 ZZ   -0.000000  -0.165411  -0.000000   0.000000  -0.000000
   17  O  1 XY   -0.000000  -0.000000  -0.000000   0.000000  -0.137221
   18  O  1 XZ   -0.000000  -0.000000  -0.101469   0.000000  -0.000000
   19  O  1 YZ    0.131044  -0.000000  -0.000000   0.041258  -0.000000
   20  O  1 XX   -0.000000  -0.139815  -0.000000   0.000000  -0.000000
   21  O  1 YY   -0.000000  -0.444101  -0.000000   0.000000  -0.000000
   22  O  1 ZZ   -0.000000   0.946590  -0.000000   0.000000  -0.000000
   23  O  1 XY   -0.000000  -0.000000  -0.000000   0.000000   0.688043
   24  O  1 XZ   -0.000000  -0.000000   0.507908   0.000000  -0.000000
   25  O  1 YZ   -0.209076  -0.000000  -0.000000   0.105294  -0.000000
   26  O  1 XXX  -0.000000  -0.000000  -0.887783   0.000000  -0.000000
   27  O  1 YYY   0.556874  -0.000000  -0.000000   1.457988  -0.000000
   28  O  1 ZZZ  -0.000000   1.285149  -0.000000   0.000000  -0.000000
   29  O  1 XXY   1.132037  -0.000000  -0.000000  -0.227579  -0.000000
   30  O  1 XXZ  -0.000000  -0.646422  -0.000000   0.000000  -0.000000
   31  O  1 YYX  -0.000000  -0.000000   0.942781   0.000000  -0.000000
   32  O  1 YYZ  -0.000000  -0.138359  -0.000000   0.000000  -0.000000
   33  O  1 ZZX  -0.000000  -0.000000   0.498407   0.000000  -0.000000
   34  O  1 ZZY   0.265081  -0.000000  -0.000000  -0.667825  -0.000000
   35  O  1 XYZ  -0.000000  -0.000000  -0.000000   0.000000   1.038212
   36  O  1XXXX  -0.000000   0.099336  -0.000000   0.000000  -0.000000
   37  O  1YYYY  -0.000000   0.360284  -0.000000   0.000000  -0.000000
   38  O  1ZZZZ  -0.000000  -0.391629  -0.000000   0.000000  -0.000000
   39  O  1XXXY  -0.000000  -0.000000  -0.000000   0.000000  -0.189590
   40  O  1XXXZ  -0.000000  -0.000000  -0.157064   0.000000  -0.000000
   41  O  1YYYX  -0.000000  -0.000000  -0.000000   0.000000  -0.240907
   42  O  1YYYZ   0.258605  -0.000000  -0.000000   0.052825  -0.000000
   43  O  1ZZZX  -0.000000  -0.000000  -0.153353   0.000000  -0.000000
   44  O  1ZZZY   0.223742  -0.000000  -0.000000   0.072671  -0.000000
   45  O  1XXYY  -0.000000   0.101925  -0.000000   0.000000  -0.000000
   46  O  1XXZZ  -0.000000  -0.101369  -0.000000   0.000000  -0.000000
   47  O  1YYZZ  -0.000000  -0.062387  -0.000000   0.000000  -0.000000
   48  O  1XXYZ   0.098352  -0.000000  -0.000000   0.018015  -0.000000
   49  O  1YYXZ  -0.000000  -0.000000  -0.096331   0.000000  -0.000000
   50  O  1ZZXY  -0.000000  -0.000000  -0.000000   0.000000  -0.098840
   51  H  2  S    0.018610  -0.046905  -0.000000   0.097305  -0.000000
   52  H  2  S    0.378194  -0.486266  -0.000000   0.402077  -0.000000
   53  H  2  S   -0.153719   0.058183  -0.000000  -0.050978  -0.000000
   54  H  2  X   -0.000000  -0.000000  -0.330169   0.000000   0.360082
   55  H  2  Y    0.383365  -0.432233  -0.000000   0.035759  -0.000000
   56  H  2  Z   -0.274308  -0.125141  -0.000000  -0.417517  -0.000000
   57  H  3  S   -0.018610  -0.046905  -0.000000  -0.097305  -0.000000
   58  H  3  S   -0.378194  -0.486266  -0.000000  -0.402077  -0.000000
   59  H  3  S    0.153719   0.058183  -0.000000   0.050978  -0.000000
   60  H  3  X   -0.000000  -0.000000  -0.330169   0.000000  -0.360082
   61  H  3  Y    0.383365   0.432233  -0.000000   0.035759  -0.000000
   62  H  3  Z    0.274308  -0.125141  -0.000000   0.417517  -0.000000

                     41         42         43         44         45
                    6.7340     6.9449     7.6779     9.3021     9.3477
                     A          A          A          A          A   
    1  O  1  S    0.000000   0.011061   0.242968  -0.000000   0.000477
    2  O  1  S    0.000000   0.026669   0.084039  -0.000000   0.000993
    3  O  1  X    0.000000  -0.000000  -0.000000  -0.000000   0.000000
    4  O  1  Y   -0.320538  -0.000000  -0.000000  -0.000000   0.000000
    5  O  1  Z    0.000000  -0.221674   0.026931  -0.000000   0.002128
    6  O  1  S    0.000000   0.334442  -1.621970  -0.000000  -0.014597
    7  O  1  X    0.000000  -0.000000  -0.000000  -0.000000   0.000000
    8  O  1  Y   -0.415981  -0.000000   0.000000  -0.000000   0.000000
    9  O  1  Z    0.000000  -0.311539   0.045722  -0.000000  -0.020507
   10  O  1  S    0.000000   0.956949   3.209490  -0.000000   0.078041
   11  O  1  X    0.000000  -0.000000  -0.000000  -0.000000   0.000000
   12  O  1  Y    1.056130  -0.000000  -0.000000  -0.000000   0.000000
   13  O  1  Z    0.000000   0.822703   0.254445  -0.000000   0.062070
   14  O  1 XX    0.000000   0.047331  -0.296763  -0.000000   0.000458
   15  O  1 YY    0.000000  -0.070543  -0.362217  -0.000000   0.028780
   16  O  1 ZZ    0.000000   0.017445  -0.348151  -0.000000  -0.027850
   17  O  1 XY    0.000000  -0.000000  -0.000000  -0.004478   0.000000
   18  O  1 XZ    0.000000  -0.000000  -0.000000  -0.000000   0.000000
   19  O  1 YZ   -0.098189  -0.000000  -0.000000  -0.000000   0.000000
   20  O  1 XX    0.000000  -0.346949  -1.665404  -0.000000  -0.027563
   21  O  1 YY    0.000000   1.617009  -1.570412  -0.000000  -0.042326
   22  O  1 ZZ    0.000000   0.597364  -1.541795  -0.000000   0.061909
   23  O  1 XY    0.000000  -0.000000  -0.000000  -0.006919   0.000000
   24  O  1 XZ    0.000000  -0.000000  -0.000000  -0.000000   0.000000
   25  O  1 YZ    1.663475  -0.000000  -0.000000  -0.000000   0.000000
   26  O  1 XXX   0.000000  -0.000000  -0.000000  -0.000000   0.000000
   27  O  1 YYY   1.120623  -0.000000  -0.000000  -0.000000   0.000000
   28  O  1 ZZZ   0.000000   0.385180  -0.044373  -0.000000   0.052151
   29  O  1 XXY  -0.262670  -0.000000  -0.000000  -0.000000   0.000000
   30  O  1 XXZ   0.000000  -0.112195  -0.029061  -0.000000  -0.021771
   31  O  1 YYX   0.000000  -0.000000  -0.000000  -0.000000   0.000000
   32  O  1 YYZ   0.000000   1.570055  -0.059195  -0.000000  -0.001764
   33  O  1 ZZX   0.000000  -0.000000  -0.000000  -0.000000   0.000000
   34  O  1 ZZY   1.296871  -0.000000  -0.000000  -0.000000   0.000000
   35  O  1 XYZ   0.000000  -0.000000  -0.000000   0.011113   0.000000
   36  O  1XXXX   0.000000   0.104045   1.001376  -0.000000  -0.841584
   37  O  1YYYY   0.000000  -0.188934   0.972980  -0.000000  -0.561895
   38  O  1ZZZZ   0.000000   0.094166   0.943269  -0.000000  -0.797420
   39  O  1XXXY   0.000000  -0.000000  -0.000000  -0.422917   0.000000
   40  O  1XXXZ   0.000000  -0.000000  -0.000000  -0.000000   0.000000
   41  O  1YYYX   0.000000  -0.000000  -0.000000   1.058464   0.000000
   42  O  1YYYZ  -0.321485  -0.000000  -0.000000  -0.000000   0.000000
   43  O  1ZZZX   0.000000  -0.000000  -0.000000  -0.000000   0.000000
   44  O  1ZZZY  -0.174334  -0.000000  -0.000000  -0.000000   0.000000
   45  O  1XXYY   0.000000   0.080447   0.547451  -0.000000   0.544769
   46  O  1XXZZ   0.000000   0.076844   0.566359  -0.000000   0.947849
   47  O  1YYZZ   0.000000  -0.183600   0.596595  -0.000000   0.450397
   48  O  1XXYZ   0.002188  -0.000000  -0.000000  -0.000000   0.000000
   49  O  1YYXZ   0.000000  -0.000000  -0.000000  -0.000000   0.000000
   50  O  1ZZXY   0.000000  -0.000000  -0.000000  -0.848688   0.000000
   51  H  2  S    0.841755  -0.806189   0.031089  -0.000000  -0.010544
   52  H  2  S    1.081854  -1.207531  -0.168950  -0.000000  -0.041951
   53  H  2  S   -0.010933   0.090103  -0.195788  -0.000000   0.000651
   54  H  2  X    0.000000  -0.000000  -0.000000  -0.004344   0.000000
   55  H  2  Y    0.722464  -0.671706  -0.075227  -0.000000  -0.042113
   56  H  2  Z   -0.459718   0.636217   0.022553  -0.000000  -0.030841
   57  H  3  S   -0.841755  -0.806189   0.031089  -0.000000  -0.010544
   58  H  3  S   -1.081854  -1.207531  -0.168950  -0.000000  -0.041951
   59  H  3  S    0.010933   0.090103  -0.195788  -0.000000   0.000651
   60  H  3  X    0.000000  -0.000000  -0.000000   0.004344   0.000000
   61  H  3  Y    0.722464   0.671706   0.075227  -0.000000   0.042113
   62  H  3  Z    0.459718   0.636217   0.022553  -0.000000  -0.030841

                     46         47         48         49         50
                    9.3534     9.3929     9.4025     9.4338     9.4670
                     A          A          A          A          A   
    1  O  1  S    0.000000  -0.000000   0.002439  -0.000000  -0.000000
    2  O  1  S    0.000000  -0.000000   0.001327  -0.000000  -0.000000
    3  O  1  X   -0.002287  -0.000000   0.000000  -0.000000   0.014520
    4  O  1  Y    0.000000  -0.004535   0.000000  -0.000000  -0.000000
    5  O  1  Z    0.000000  -0.000000   0.005838  -0.000000  -0.000000
    6  O  1  S    0.000000  -0.000000  -0.063954  -0.000000  -0.000000
    7  O  1  X    0.013531  -0.000000   0.000000  -0.000000  -0.081721
    8  O  1  Y    0.000000   0.008209   0.000000  -0.000000  -0.000000
    9  O  1  Z    0.000000  -0.000000  -0.011158  -0.000000  -0.000000
   10  O  1  S    0.000000  -0.000000   0.205430  -0.000000  -0.000000
   11  O  1  X   -0.020192  -0.000000   0.000000  -0.000000   0.117430
   12  O  1  Y    0.000000  -0.085059   0.000000  -0.000000  -0.000000
   13  O  1  Z    0.000000  -0.000000   0.121267  -0.000000  -0.000000
   14  O  1 XX    0.000000  -0.000000   0.013248  -0.000000  -0.000000
   15  O  1 YY    0.000000  -0.000000   0.071341  -0.000000  -0.000000
   16  O  1 ZZ    0.000000  -0.000000  -0.088067  -0.000000  -0.000000
   17  O  1 XY    0.000000  -0.000000   0.000000   0.089645  -0.000000
   18  O  1 XZ    0.009773  -0.000000   0.000000  -0.000000  -0.086106
   19  O  1 YZ    0.000000  -0.008359   0.000000  -0.000000  -0.000000
   20  O  1 XX    0.000000  -0.000000  -0.058828  -0.000000  -0.000000
   21  O  1 YY    0.000000  -0.000000  -0.217407  -0.000000  -0.000000
   22  O  1 ZZ    0.000000  -0.000000   0.100217  -0.000000  -0.000000
   23  O  1 XY    0.000000  -0.000000   0.000000  -0.148545  -0.000000
   24  O  1 XZ   -0.026428  -0.000000   0.000000  -0.000000   0.142953
   25  O  1 YZ    0.000000   0.048827   0.000000  -0.000000  -0.000000
   26  O  1 XXX   0.014722  -0.000000   0.000000  -0.000000  -0.014447
   27  O  1 YYY   0.000000  -0.069641   0.000000  -0.000000  -0.000000
   28  O  1 ZZZ   0.000000  -0.000000   0.050272  -0.000000  -0.000000
   29  O  1 XXY   0.000000   0.017092   0.000000  -0.000000  -0.000000
   30  O  1 XXZ   0.000000  -0.000000  -0.002395  -0.000000  -0.000000
   31  O  1 YYX  -0.009068  -0.000000   0.000000  -0.000000   0.090427
   32  O  1 YYZ   0.000000  -0.000000  -0.067268  -0.000000  -0.000000
   33  O  1 ZZX  -0.031999  -0.000000   0.000000  -0.000000   0.056014
   34  O  1 ZZY   0.000000   0.075641   0.000000  -0.000000  -0.000000
   35  O  1 XYZ   0.000000  -0.000000   0.000000  -0.070400  -0.000000
   36  O  1XXXX   0.000000  -0.000000  -0.116458  -0.000000  -0.000000
   37  O  1YYYY   0.000000  -0.000000  -0.713666  -0.000000  -0.000000
   38  O  1ZZZZ   0.000000  -0.000000   0.360309  -0.000000  -0.000000
   39  O  1XXXY   0.000000  -0.000000   0.000000   1.128796  -0.000000
   40  O  1XXXZ  -0.823768  -0.000000   0.000000  -0.000000  -0.874682
   41  O  1YYYX   0.000000  -0.000000   0.000000  -0.559558  -0.000000
   42  O  1YYYZ   0.000000  -0.632887   0.000000  -0.000000  -0.000000
   43  O  1ZZZX   1.192473  -0.000000   0.000000  -0.000000   0.097480
   44  O  1ZZZY   0.000000   1.147006   0.000000  -0.000000  -0.000000
   45  O  1XXYY   0.000000  -0.000000   1.079645  -0.000000  -0.000000
   46  O  1XXZZ   0.000000  -0.000000  -0.843680  -0.000000  -0.000000
   47  O  1YYZZ   0.000000  -0.000000   0.244400  -0.000000  -0.000000
   48  O  1XXYZ   0.000000  -0.710715   0.000000  -0.000000  -0.000000
   49  O  1YYXZ  -0.490068  -0.000000   0.000000  -0.000000   1.039327
   50  O  1ZZXY   0.000000  -0.000000   0.000000  -0.759119  -0.000000
   51  H  2  S    0.000000   0.033596   0.051882  -0.000000  -0.000000
   52  H  2  S    0.000000  -0.054858  -0.088831  -0.000000  -0.000000
   53  H  2  S    0.000000   0.008146   0.005617  -0.000000  -0.000000
   54  H  2  X    0.028804  -0.000000   0.000000  -0.134301  -0.167056
   55  H  2  Y    0.000000   0.074174  -0.079767  -0.000000  -0.000000
   56  H  2  Z    0.000000   0.097905  -0.106178  -0.000000  -0.000000
   57  H  3  S    0.000000  -0.033596   0.051882  -0.000000  -0.000000
   58  H  3  S    0.000000   0.054858  -0.088831  -0.000000  -0.000000
   59  H  3  S    0.000000  -0.008146   0.005617  -0.000000  -0.000000
   60  H  3  X    0.028804  -0.000000   0.000000   0.134301  -0.167056
   61  H  3  Y    0.000000   0.074174   0.079767  -0.000000  -0.000000
   62  H  3  Z    0.000000  -0.097905  -0.106178  -0.000000  -0.000000

                     51         52         53         54         55
                    9.7247     9.7508    11.5186    11.5250    11.5814
                     A          A          A          A          A   
    1  O  1  S    0.000000  -0.005341  -0.000000  -0.000000  -0.000642
    2  O  1  S    0.000000   0.008213  -0.000000  -0.000000  -0.003708
    3  O  1  X    0.000000   0.000000  -0.014567  -0.000000  -0.000000
    4  O  1  Y    0.001869   0.000000  -0.000000  -0.000000  -0.000000
    5  O  1  Z    0.000000   0.016741  -0.000000  -0.000000   0.015023
    6  O  1  S    0.000000   0.108095  -0.000000  -0.000000   0.043253
    7  O  1  X    0.000000   0.000000   0.009200  -0.000000  -0.000000
    8  O  1  Y   -0.271555   0.000000  -0.000000  -0.000000  -0.000000
    9  O  1  Z    0.000000  -0.297148  -0.000000  -0.000000   0.005594
   10  O  1  S    0.000000   0.106000  -0.000000  -0.000000  -0.204734
   11  O  1  X    0.000000   0.000000   0.052070  -0.000000  -0.000000
   12  O  1  Y    0.445382   0.000000  -0.000000  -0.000000  -0.000000
   13  O  1  Z    0.000000   0.318973  -0.000000  -0.000000  -0.171986
   14  O  1 XX    0.000000   0.043119  -0.000000  -0.000000   0.528267
   15  O  1 YY    0.000000   0.057733  -0.000000  -0.000000   0.859913
   16  O  1 ZZ    0.000000  -0.062984  -0.000000  -0.000000  -1.401545
   17  O  1 XY    0.000000   0.000000  -0.000000   1.415805  -0.000000
   18  O  1 XZ    0.000000   0.000000   1.417230  -0.000000  -0.000000
   19  O  1 YZ   -0.071971   0.000000  -0.000000  -0.000000  -0.000000
   20  O  1 XX    0.000000  -0.082500  -0.000000  -0.000000   0.361033
   21  O  1 YY    0.000000   0.475767  -0.000000  -0.000000   0.674332
   22  O  1 ZZ    0.000000   0.402416  -0.000000  -0.000000  -1.006677
   23  O  1 XY    0.000000   0.000000  -0.000000   0.913440  -0.000000
   24  O  1 XZ    0.000000   0.000000   0.868109  -0.000000  -0.000000
   25  O  1 YZ    0.563584   0.000000  -0.000000  -0.000000  -0.000000
   26  O  1 XXX   0.000000   0.000000  -0.032635  -0.000000  -0.000000
   27  O  1 YYY   0.373353   0.000000  -0.000000  -0.000000  -0.000000
   28  O  1 ZZZ   0.000000   0.257158  -0.000000  -0.000000  -0.082760
   29  O  1 XXY  -0.045920   0.000000  -0.000000  -0.000000  -0.000000
   30  O  1 XXZ   0.000000  -0.004567  -0.000000  -0.000000   0.022148
   31  O  1 YYX   0.000000   0.000000   0.040061  -0.000000  -0.000000
   32  O  1 YYZ   0.000000   0.422704  -0.000000  -0.000000   0.014241
   33  O  1 ZZX   0.000000   0.000000   0.021376  -0.000000  -0.000000
   34  O  1 ZZY   0.271867   0.000000  -0.000000  -0.000000  -0.000000
   35  O  1 XYZ   0.000000   0.000000  -0.000000   0.059928  -0.000000
   36  O  1XXXX   0.000000   0.543751  -0.000000  -0.000000  -0.537250
   37  O  1YYYY   0.000000  -0.503782  -0.000000  -0.000000  -0.822364
   38  O  1ZZZZ   0.000000  -0.553257  -0.000000  -0.000000   1.445714
   39  O  1XXXY   0.000000   0.000000  -0.000000  -0.990050  -0.000000
   40  O  1XXXZ   0.000000   0.000000  -0.955438  -0.000000  -0.000000
   41  O  1YYYX   0.000000   0.000000  -0.000000  -0.881701  -0.000000
   42  O  1YYYZ   0.993583   0.000000  -0.000000  -0.000000  -0.000000
   43  O  1ZZZX   0.000000   0.000000  -0.911065  -0.000000  -0.000000
   44  O  1ZZZY  -0.442168   0.000000  -0.000000  -0.000000  -0.000000
   45  O  1XXYY   0.000000  -0.596167  -0.000000  -0.000000  -0.468752
   46  O  1XXZZ   0.000000  -0.365773  -0.000000  -0.000000   0.314843
   47  O  1YYZZ   0.000000   1.211581  -0.000000  -0.000000   0.056136
   48  O  1XXYZ  -0.938264   0.000000  -0.000000  -0.000000  -0.000000
   49  O  1YYXZ   0.000000   0.000000  -0.339535  -0.000000  -0.000000
   50  O  1ZZXY   0.000000   0.000000  -0.000000  -0.364180  -0.000000
   51  H  2  S    0.451569  -0.446124  -0.000000  -0.000000   0.009722
   52  H  2  S    0.122970  -0.152726  -0.000000  -0.000000   0.117739
   53  H  2  S    0.118831  -0.025364  -0.000000  -0.000000  -0.004389
   54  H  2  X    0.000000   0.000000  -0.081897   0.096804  -0.000000
   55  H  2  Y    0.101195  -0.230263  -0.000000  -0.000000   0.128362
   56  H  2  Z   -0.166904   0.069140  -0.000000  -0.000000   0.107244
   57  H  3  S   -0.451569  -0.446124  -0.000000  -0.000000   0.009722
   58  H  3  S   -0.122970  -0.152726  -0.000000  -0.000000   0.117739
   59  H  3  S   -0.118831  -0.025364  -0.000000  -0.000000  -0.004389
   60  H  3  X    0.000000   0.000000  -0.081897  -0.096804  -0.000000
   61  H  3  Y    0.101195   0.230263  -0.000000  -0.000000  -0.128362
   62  H  3  Z    0.166904   0.069140  -0.000000  -0.000000   0.107244

                     56         57         58         59         60
                   11.6365    11.7285    16.9986    17.0702    17.1699
                     A          A          A          A          A   
    1  O  1  S    0.005433   0.000000  -0.000000  -0.002917   0.000000
    2  O  1  S    0.014510   0.000000  -0.000000  -0.070945   0.000000
    3  O  1  X    0.000000   0.000000  -3.427452  -0.000000   0.000000
    4  O  1  Y    0.000000  -0.051162  -0.000000  -0.000000  -3.471865
    5  O  1  Z   -0.036735   0.000000  -0.000000  -3.446850   0.000000
    6  O  1  S   -0.253007   0.000000  -0.000000   0.512507  -0.000000
    7  O  1  X    0.000000   0.000000  12.704885  -0.000000   0.000000
    8  O  1  Y    0.000000   0.156539  -0.000000   0.000000  12.801955
    9  O  1  Z    0.154379   0.000000  -0.000000  12.733253  -0.000000
   10  O  1  S    0.766900   0.000000  -0.000000  -0.326587  -0.000000
   11  O  1  X    0.000000   0.000000  -0.540540  -0.000000   0.000000
   12  O  1  Y    0.000000   0.363056  -0.000000  -0.000000  -0.563713
   13  O  1  Z    0.269432   0.000000  -0.000000  -0.531064   0.000000
   14  O  1 XX   -1.299701   0.000000  -0.000000  -0.093204   0.000000
   15  O  1 YY    1.132722   0.000000  -0.000000  -0.130761   0.000000
   16  O  1 ZZ    0.211094   0.000000  -0.000000  -0.118435   0.000000
   17  O  1 XY    0.000000   0.000000  -0.000000  -0.000000   0.000000
   18  O  1 XZ    0.000000   0.000000  -0.002034  -0.000000   0.000000
   19  O  1 YZ    0.000000   1.415085  -0.000000  -0.000000  -0.025977
   20  O  1 XX   -1.013070   0.000000  -0.000000   0.077944   0.000000
   21  O  1 YY    0.674649   0.000000  -0.000000   0.146825   0.000000
   22  O  1 ZZ   -0.023664   0.000000  -0.000000   0.179829   0.000000
   23  O  1 XY    0.000000   0.000000  -0.000000  -0.000000   0.000000
   24  O  1 XZ    0.000000   0.000000   0.032244  -0.000000   0.000000
   25  O  1 YZ    0.000000   1.123253  -0.000000  -0.000000   0.122539
   26  O  1 XXX   0.000000   0.000000  -6.918292  -0.000000   0.000000
   27  O  1 YYY   0.000000  -0.119285  -0.000000  -0.000000  -6.853295
   28  O  1 ZZZ  -0.125207   0.000000  -0.000000  -6.870606   0.000000
   29  O  1 XXY   0.000000  -0.083872  -0.000000  -0.000000  -3.105409
   30  O  1 XXZ  -0.056699   0.000000  -0.000000  -3.096922   0.000000
   31  O  1 YYX   0.000000   0.000000  -3.075532  -0.000000   0.000000
   32  O  1 YYZ  -0.020102   0.000000  -0.000000  -3.015009   0.000000
   33  O  1 ZZX   0.000000   0.000000  -3.082885  -0.000000   0.000000
   34  O  1 ZZY   0.000000  -0.024665  -0.000000  -0.000000  -3.044921
   35  O  1 XYZ   0.000000   0.000000  -0.000000  -0.000000   0.000000
   36  O  1XXXX   1.366093   0.000000  -0.000000  -0.036077   0.000000
   37  O  1YYYY  -1.102327   0.000000  -0.000000  -0.026703   0.000000
   38  O  1ZZZZ  -0.149274   0.000000  -0.000000  -0.064478   0.000000
   39  O  1XXXY   0.000000   0.000000  -0.000000  -0.000000   0.000000
   40  O  1XXXZ   0.000000   0.000000  -0.014668  -0.000000   0.000000
   41  O  1YYYX   0.000000   0.000000  -0.000000  -0.000000   0.000000
   42  O  1YYYZ   0.000000  -0.964284  -0.000000  -0.000000   0.031366
   43  O  1ZZZX   0.000000   0.000000  -0.007596  -0.000000   0.000000
   44  O  1ZZZY   0.000000  -1.001795  -0.000000  -0.000000  -0.008940
   45  O  1XXYY   0.061588   0.000000  -0.000000  -0.032366   0.000000
   46  O  1XXZZ   0.360947   0.000000  -0.000000  -0.040258   0.000000
   47  O  1YYZZ  -0.395194   0.000000  -0.000000   0.027558   0.000000
   48  O  1XXYZ   0.000000  -0.475134  -0.000000  -0.000000  -0.021755
   49  O  1YYXZ   0.000000   0.000000   0.009260  -0.000000   0.000000
   50  O  1ZZXY   0.000000   0.000000  -0.000000  -0.000000   0.000000
   51  H  2  S    0.044595  -0.003869  -0.000000  -0.094358   0.083641
   52  H  2  S   -0.398144   0.393558  -0.000000  -0.060163   0.126886
   53  H  2  S    0.043249  -0.095008  -0.000000   0.073607  -0.198043
   54  H  2  X    0.000000   0.000000  -0.032296  -0.000000   0.000000
   55  H  2  Y    0.007142  -0.025909  -0.000000  -0.082927   0.052301
   56  H  2  Z    0.022436   0.019724  -0.000000   0.029629  -0.054331
   57  H  3  S    0.044595   0.003869  -0.000000  -0.094358  -0.083641
   58  H  3  S   -0.398144  -0.393558  -0.000000  -0.060163  -0.126886
   59  H  3  S    0.043249   0.095008  -0.000000   0.073607   0.198043
   60  H  3  X    0.000000   0.000000  -0.032296  -0.000000   0.000000
   61  H  3  Y   -0.007142  -0.025909  -0.000000   0.082927   0.052301
   62  H  3  Z    0.022436  -0.019724  -0.000000   0.029629   0.054331

                     61         62
                   18.2117    78.0779
                     A          A   
    1  O  1  S   -0.110865   2.815764
    2  O  1  S   -1.974258  -4.742203
    3  O  1  X   -0.000000  -0.000000
    4  O  1  Y   -0.000000  -0.000000
    5  O  1  Z    0.154812   0.020501
    6  O  1  S    8.924243   7.862101
    7  O  1  X   -0.000000  -0.000000
    8  O  1  Y    0.000000  -0.000000
    9  O  1  Z   -0.559345  -0.070525
   10  O  1  S    2.560240   1.628211
   11  O  1  X   -0.000000  -0.000000
   12  O  1  Y   -0.000000  -0.000000
   13  O  1  Z    0.215357   0.117150
   14  O  1 XX   -3.235786  -2.520890
   15  O  1 YY   -3.216922  -2.519590
   16  O  1 ZZ   -3.219333  -2.519148
   17  O  1 XY   -0.000000  -0.000000
   18  O  1 XZ   -0.000000  -0.000000
   19  O  1 YZ   -0.000000  -0.000000
   20  O  1 XX   -1.715151  -1.137505
   21  O  1 YY   -1.592147  -1.075551
   22  O  1 ZZ   -1.605933  -1.080185
   23  O  1 XY   -0.000000  -0.000000
   24  O  1 XZ   -0.000000  -0.000000
   25  O  1 YZ   -0.000000  -0.000000
   26  O  1 XXX  -0.000000  -0.000000
   27  O  1 YYY  -0.000000  -0.000000
   28  O  1 ZZZ   0.310336   0.041270
   29  O  1 XXY  -0.000000  -0.000000
   30  O  1 XXZ   0.129385   0.013522
   31  O  1 YYX  -0.000000  -0.000000
   32  O  1 YYZ   0.156628   0.027781
   33  O  1 ZZX  -0.000000  -0.000000
   34  O  1 ZZY  -0.000000  -0.000000
   35  O  1 XYZ  -0.000000  -0.000000
   36  O  1XXXX  -0.230328  -0.480512
   37  O  1YYYY  -0.272335  -0.493931
   38  O  1ZZZZ  -0.270996  -0.496043
   39  O  1XXXY  -0.000000  -0.000000
   40  O  1XXXZ  -0.000000  -0.000000
   41  O  1YYYX  -0.000000  -0.000000
   42  O  1YYYZ  -0.000000  -0.000000
   43  O  1ZZZX  -0.000000  -0.000000
   44  O  1ZZZY  -0.000000  -0.000000
   45  O  1XXYY  -0.144180  -0.284489
   46  O  1XXZZ  -0.148405  -0.286742
   47  O  1YYZZ  -0.154863  -0.287124
   48  O  1XXYZ  -0.000000  -0.000000
   49  O  1YYXZ  -0.000000  -0.000000
   50  O  1ZZXY  -0.000000  -0.000000
   51  H  2  S   -0.013688  -0.005768
   52  H  2  S   -0.143312  -0.082959
   53  H  2  S   -0.145116  -0.092856
   54  H  2  X   -0.000000  -0.000000
   55  H  2  Y   -0.072898  -0.041707
   56  H  2  Z    0.038096   0.020771
   57  H  3  S   -0.013688  -0.005768
   58  H  3  S   -0.143312  -0.082959
   59  H  3  S   -0.145116  -0.092856
   60  H  3  X   -0.000000  -0.000000
   61  H  3  Y    0.072898   0.041707
   62  H  3  Z    0.038096   0.020771
 ...... END OF RHF CALCULATION ......
 STEP CPU TIME =     0.09 TOTAL CPU TIME =        0.2 (    0.0 MIN)
 TOTAL WALL CLOCK TIME=        0.2 SECONDS, CPU UTILIZATION IS  94.12%

     ----------------------------------------------------------------
     PROPERTY VALUES FOR THE RHF   SELF-CONSISTENT FIELD WAVEFUNCTION
     ----------------------------------------------------------------

          -----------------
          ENERGY COMPONENTS
          -----------------

         WAVEFUNCTION NORMALIZATION =       1.0000000000

                ONE ELECTRON ENERGY =    -123.1531056681
                TWO ELECTRON ENERGY =      37.9132483881
           NUCLEAR REPULSION ENERGY =       9.1892146195
                                      ------------------
                       TOTAL ENERGY =     -76.0506426605

 ELECTRON-ELECTRON POTENTIAL ENERGY =      37.9132483881
  NUCLEUS-ELECTRON POTENTIAL ENERGY =    -199.1982000509
   NUCLEUS-NUCLEUS POTENTIAL ENERGY =       9.1892146195
                                      ------------------
             TOTAL POTENTIAL ENERGY =    -152.0957370433
               TOTAL KINETIC ENERGY =      76.0450943828
                 VIRIAL RATIO (V/T) =       2.0000729604

          ---------------------------------------
          MULLIKEN AND LOWDIN POPULATION ANALYSES
          ---------------------------------------

     ATOMIC MULLIKEN POPULATION IN EACH MOLECULAR ORBITAL

                      1          2          3          4          5

                  2.000000   2.000000   2.000000   2.000000   2.000000

    1             1.999861   1.630391   1.249877   1.738513   1.967241
    2             0.000070   0.184804   0.375062   0.130744   0.016379
    3             0.000070   0.184804   0.375062   0.130744   0.016379

               ----- POPULATIONS IN EACH AO -----
                             MULLIKEN      LOWDIN
              1  O  1  S      1.08361     1.02966
              2  O  1  S      0.91161     0.91457
              3  O  1  X      0.38581     0.37233
              4  O  1  Y      0.25192     0.23520
              5  O  1  Z      0.30848     0.29214
              6  O  1  S      1.00627     0.32605
[...]

 VB-ORBITAL OPTIMIZATION OF GROUP  2 ...
 GROUP =  2  ITER =  1 CMAX =  0.01633955225344
 GROUP =  2  ITER =  2 CMAX =  0.01621156997260
 GROUP =  2  ITER =  3 CMAX =  0.01334739735229
 GROUP =  2  ITER =  4 CMAX =  0.01169690739731
 GROUP =  2  ITER =  5 CMAX =  0.00666477505530
 GROUP =  2  ITER =  6 CMAX =  0.00346117283749
 GROUP =  2  ITER =  7 CMAX =  0.00156731246772
 GROUP =  2  ITER =  8 CMAX =  0.00064398084681

 ENERGY AND DIFF OF MACROITER    2 =    -76.09250249     -0.00792517

 VB-ORBITAL OPTIMIZATION OF GROUP  2 ...
 GROUP =  2  ITER =  1 CMAX =  0.00355696407979
 GROUP =  2  ITER =  2 CMAX =  0.01681422930612
 GROUP =  2  ITER =  3 CMAX =  0.00124059162775
 GROUP =  2  ITER =  4 CMAX =  0.00001733168660

 ENERGY AND DIFF OF MACROITER    3 =    -76.09278325     -0.00028076

 VB-ORBITAL OPTIMIZATION OF GROUP  2 ...
 GROUP =  2  ITER =  1 CMAX =  0.00191511871700
 GROUP =  2  ITER =  2 CMAX =  0.00283665319790
 GROUP =  2  ITER =  3 CMAX =  0.00018661349560

 ENERGY AND DIFF OF MACROITER    4 =    -76.09287571     -0.00009246

 VB-ORBITAL OPTIMIZATION OF GROUP  2 ...
 GROUP =  2  ITER =  1 CMAX =  0.00085083860008

 ENERGY AND DIFF OF MACROITER    5 =    -76.09291772     -0.00004201

 VB-ORBITAL OPTIMIZATION OF GROUP  2 ...
 GROUP =  2  ITER =  1 CMAX =  0.00090918023028

 ENERGY AND DIFF OF MACROITER    6 =    -76.09293508     -0.00001736

 VB-ORBITAL OPTIMIZATION OF GROUP  2 ...
 GROUP =  2  ITER =  1 CMAX =  0.00074151061916

 ENERGY AND DIFF OF MACROITER    7 =    -76.09294301     -0.00000793

 VB-ORBITAL OPTIMIZATION OF GROUP  2 ...
 GROUP =  2  ITER =  1 CMAX =  0.00070597900593

 ENERGY AND DIFF OF MACROITER    8 =    -76.09294676     -0.00000375

 VB-ORBITAL OPTIMIZATION OF GROUP  2 ...
 GROUP =  2  ITER =  1 CMAX =  0.00055766230765

 ENERGY AND DIFF OF MACROITER    9 =    -76.09294856     -0.00000179

 VB-ORBITAL OPTIMIZATION OF GROUP  2 ...
 GROUP =  2  ITER =  1 CMAX =  0.00048864758476

 ENERGY AND DIFF OF MACROITER   10 =    -76.09294946     -0.00000090

 VB-ORBITAL OPTIMIZATION OF GROUP  2 ...
 GROUP =  2  ITER =  1 CMAX =  0.00040812603565


 OVERLAP MATRIX OF VB ORBITALS FOR GROUP   2

        1      2      3      4
 ===============================
   1 1.0000
   2 0.8134 1.0000
   3-0.1884-0.0752 1.0000
   4-0.0752 0.0253 0.8134 1.0000

 ENERGY AND DIFF OF MACROITER   11 =    -76.09294991     -0.00000046


 MULLIKEN CHARGES ON ATOMS
 -------------------------
  ATOM             CHARGE 

    1            -0.53602
    2             0.26801
    3             0.26801

 -------------------------


 ORBITALS OF EACH ELECTRON GROUP IN AO BASIS: ORBITAL(GROUP)
 ===========================================================================
    Orbital#             1         2         3         4         5         6
      Group#             1         1         1         2         2         2
 ---------------------------------------------------------------------------
  AO# LABELS
   1  1  O     s  -0.56088   0.04968   0.00000  -0.04660  -0.01101   0.04660
   2  1  O     s  -0.48917   0.12892   0.00000  -0.07726  -0.01577   0.07726
   3  1  O     x   0.00000   0.00000   0.29388  -0.00000  -0.00000   0.00000
   4  1  O     y   0.00000  -0.00000   0.00000   0.21569   0.08144   0.21569
   5  1  O     z  -0.01739   0.13379  -0.00000   0.22769   0.08272  -0.22769
   6  1  O     s   0.05611  -0.54431   0.00001   0.29234   0.00832  -0.29234
   7  1  O     x   0.00000   0.00000   0.42757  -0.00000  -0.00000   0.00000
   8  1  O     y   0.00000  -0.00000   0.00000   0.34888   0.08669   0.34888
   9  1  O     z  -0.01340   0.19024  -0.00000   0.36332   0.08975  -0.36332
  10  1  O     s   0.04820  -0.43737   0.00000  -0.01334  -0.09776   0.01334
  11  1  O     x   0.00000   0.00001   0.47224  -0.00000  -0.00000   0.00000
  12  1  O     y   0.00000  -0.00000   0.00000   0.14440   0.13677   0.14440
  13  1  O     z  -0.02237   0.20563  -0.00000   0.20337   0.18631  -0.20337
  14  1  O    xx   0.00128  -0.00730   0.00000  -0.00656   0.00287   0.00656
  15  1  O    yy   0.00124  -0.00700   0.00000   0.00810  -0.00164  -0.00810
  16  1  O    zz   0.00087  -0.00361   0.00000   0.01002   0.00016  -0.01002
  17  1  O    xy   0.00000  -0.00000  -0.00000  -0.00000   0.00000  -0.00000
  18  1  O    xz   0.00000   0.00000   0.00443  -0.00000   0.00000   0.00000
  19  1  O    yz   0.00000  -0.00000   0.00000   0.01825  -0.00322   0.01825
  20  1  O    xx   0.00403  -0.03045   0.00000   0.01355   0.00453  -0.01355
  21  1  O    yy   0.00438  -0.03162   0.00000   0.01189   0.01254  -0.01189
  22  1  O    zz   0.00185  -0.00820   0.00000   0.03564   0.03205  -0.03564
  23  1  O    xy   0.00000  -0.00000   0.00000   0.00000  -0.00000   0.00000
  24  1  O    xz   0.00000   0.00000   0.02762  -0.00000  -0.00000   0.00000
  25  1  O    yz   0.00000  -0.00000   0.00000   0.00654   0.01310   0.00654
  26  1  O   xxx  -0.00000  -0.00000  -0.00012   0.00000  -0.00000  -0.00000
  27  1  O   yyy   0.00000  -0.00000   0.00000  -0.00935   0.02250  -0.00935
  28  1  O   zzz  -0.00350   0.00240   0.00000  -0.01115   0.01998   0.01115
  29  1  O   xxy  -0.00000   0.00000   0.00000  -0.01242   0.00892  -0.01242
  30  1  O   xxz  -0.00143  -0.00027   0.00000  -0.01124   0.00769   0.01124
  31  1  O   yyx   0.00000   0.00000   0.00810  -0.00000  -0.00000   0.00000
  32  1  O   yyz  -0.00124  -0.00223   0.00000   0.00598   0.00767  -0.00598
  33  1  O   zzx   0.00000   0.00000   0.00511   0.00000  -0.00000  -0.00000
  34  1  O   zzy   0.00000  -0.00000   0.00000  -0.00116   0.00684  -0.00116
  35  1  O   xyz   0.00000  -0.00000   0.00000  -0.00000   0.00000  -0.00000
  36  1  O  xxxx  -0.00061   0.00593  -0.00000  -0.00819   0.00194   0.00819
  37  1  O  yyyy  -0.00001   0.00224  -0.00000   0.00011   0.00152  -0.00011
  38  1  O  zzzz  -0.00019   0.00307  -0.00000  -0.00201  -0.00274   0.00201
  39  1  O  xxxy  -0.00000   0.00000  -0.00000  -0.00000   0.00000  -0.00000
  40  1  O  xxxz  -0.00000  -0.00000  -0.00226  -0.00000   0.00000   0.00000
  41  1  O  yyyx  -0.00000   0.00000   0.00000  -0.00000   0.00000  -0.00000
  42  1  O  yyyz   0.00000  -0.00000   0.00000   0.00902   0.00161   0.00902
  43  1  O  zzzx  -0.00000  -0.00000  -0.00097  -0.00000   0.00000   0.00000
  44  1  O  zzzy   0.00000  -0.00000   0.00000   0.00624  -0.00077   0.00624
  45  1  O  xxyy  -0.00028   0.00336  -0.00000  -0.00309   0.00023   0.00309
  46  1  O  xxzz  -0.00022   0.00252  -0.00000  -0.00402  -0.00087   0.00402
  47  1  O  yyzz   0.00002   0.00076  -0.00000   0.00347   0.00156  -0.00347
  48  1  O  xxyz   0.00000  -0.00000   0.00000   0.00193  -0.00088   0.00193
  49  1  O  yyxz   0.00000   0.00000   0.00146  -0.00000   0.00000   0.00000
  50  1  O  zzxy  -0.00000   0.00000  -0.00000  -0.00000   0.00000  -0.00000
  51  2  H     s   0.00181  -0.01279   0.00000   0.00163  -0.01548  -0.05790
  52  2  H     s  -0.00296   0.03040  -0.00000  -0.00883  -0.03819  -0.04992
  53  2  H     s  -0.00157   0.01608  -0.00000  -0.00844  -0.02117  -0.04383
  54  2  H     x   0.00000   0.00000   0.02317  -0.00000  -0.00000  -0.00000
  55  2  H     y   0.00004  -0.00090   0.00000   0.00939   0.00467  -0.01800
  56  2  H     z  -0.00124   0.01170  -0.00000   0.01300   0.01338   0.01401
  57  3  H     s   0.00181  -0.01279   0.00000   0.05790   0.31274  -0.00163
  58  3  H     s  -0.00296   0.03040  -0.00000   0.04992   0.43821   0.00883
  59  3  H     s  -0.00157   0.01608  -0.00000   0.04383   0.07597   0.00844
  60  3  H     x   0.00000   0.00000   0.02317   0.00000  -0.00000   0.00000
  61  3  H     y  -0.00004   0.00090  -0.00000  -0.01800  -0.03331   0.00939
  62  3  H     z  -0.00124   0.01170  -0.00000  -0.01401  -0.01332  -0.01300

 ===========================================================================
    Orbital#             7
      Group#             2
 ---------------------------------------------------------------------------
  AO# LABELS
   1  1  O     s   0.01101
   2  1  O     s   0.01577
   3  1  O     x   0.00000
   4  1  O     y   0.08144
   5  1  O     z  -0.08272
   6  1  O     s  -0.00832
   7  1  O     x   0.00000
   8  1  O     y   0.08669
   9  1  O     z  -0.08975
  10  1  O     s   0.09776
  11  1  O     x   0.00000
  12  1  O     y   0.13677
  13  1  O     z  -0.18631
  14  1  O    xx  -0.00287
  15  1  O    yy   0.00164
  16  1  O    zz  -0.00016
  17  1  O    xy   0.00000
  18  1  O    xz  -0.00000
  19  1  O    yz  -0.00322
  20  1  O    xx  -0.00453
  21  1  O    yy  -0.01254
  22  1  O    zz  -0.03205
  23  1  O    xy  -0.00000
  24  1  O    xz   0.00000
  25  1  O    yz   0.01310
  26  1  O   xxx   0.00000
  27  1  O   yyy   0.02250
  28  1  O   zzz  -0.01998
  29  1  O   xxy   0.00892
  30  1  O   xxz  -0.00769
  31  1  O   yyx   0.00000
  32  1  O   yyz  -0.00767
  33  1  O   zzx   0.00000
  34  1  O   zzy   0.00684
  35  1  O   xyz   0.00000
  36  1  O  xxxx  -0.00194
  37  1  O  yyyy  -0.00152
  38  1  O  zzzz   0.00274
  39  1  O  xxxy   0.00000
  40  1  O  xxxz  -0.00000
  41  1  O  yyyx   0.00000
  42  1  O  yyyz   0.00161
  43  1  O  zzzx  -0.00000
  44  1  O  zzzy  -0.00077
  45  1  O  xxyy  -0.00023
  46  1  O  xxzz   0.00087
  47  1  O  yyzz  -0.00156
  48  1  O  xxyz  -0.00088
  49  1  O  yyxz  -0.00000
  50  1  O  zzxy   0.00000
  51  2  H     s  -0.31274
  52  2  H     s  -0.43821
  53  2  H     s  -0.07597
  54  2  H     x   0.00000
  55  2  H     y  -0.03331
  56  2  H     z   0.01332
  57  3  H     s   0.01548
  58  3  H     s   0.03819
  59  3  H     s   0.02117
  60  3  H     x   0.00000
  61  3  H     y   0.00467
  62  3  H     z  -0.01338


 CALCULATION OF POSITION AND EXTENT OF VB ORBITALS

 DEFAULT CENTROIDS AND EXTENTS.

 MOLECULAR GEOMETRY ABOUT CENTER OF MASS

  Atom#   ATOMIC NO.     X        Y        Z
    1         8        0.0000   0.0000  -0.0656
    2         1        0.0000  -0.7572   0.5209
    3         1        0.0000   0.7572   0.5209

 CENTROIDS OF CHARGE FOR EACH VB GROUP & DISTANCES FROM 3 ATOMS

                                                  DISTANCES FROM ATOMS
 Orbital#   Group#       X        Y        Z        1        2        3
    4         2       -0.0000   0.1788   0.1324   0.2669   1.0135   0.6967
    5         2       -0.0000   0.5563   0.4057   0.7291   1.3185   0.2317
    6         2       -0.0000  -0.1788   0.1324   0.2669   0.6967   1.0135
    7         2       -0.0000  -0.5563   0.4057   0.7291   0.2317   1.3185

 EXTENT OF ORBITAL MEASURED BY (<R**2>)

 Orbital#   Group#     <X**2>   <Y**2>   <Z**2>   <R**2> Sqrt<R**2>

    4         2        0.0887   0.1500   0.1538   0.3925   0.6265
    5         2        0.1453   0.2546   0.2102   0.6101   0.7811
    6         2        0.0887   0.1500   0.1538   0.3925   0.6265
    7         2        0.1453   0.2546   0.2102   0.6101   0.7811

 WORDS OF DYNAMIC MEMORY USED IN VB2000 CODE ONLY:     2104582
 NOTE THAT THIS IS IN ADDITION TO MEMORY USED BY GAMESS
 PRINTED NEAR END OF OUTPUT. ADD THE TWO AMOUNTS TO GIVE
 THE TOTAL MEMORY USED BY THE JOB

 STATISTICS OF CPU TIMES (SECONDS)
 CPU TIME FOR INITIALIZATION        0.440
 CPU TIME FOR MACROITERATION        9.620
 TOTAL CPU TIME                    10.060

 STEP CPU TIME =    10.12 TOTAL CPU TIME =       10.3 (    0.2 MIN)
 TOTAL WALL CLOCK TIME=       10.3 SECONDS, CPU UTILIZATION IS  99.61%

 **************************************************************
 *                                                            *
 *                  ENDING GAMESS(US) VB2000                  *
 *                                                            *
 *  Properties for individual molecular orbitals are correct  *
 *   only for VB modified orbitals in a Hartree-Fock group.   *
 *                                                            *
 **************************************************************

     ----------------------------------
     PROPERTIES FOR THE VB WAVEFUNCTION
     ----------------------------------

          -----------------
          ENERGY COMPONENTS
          -----------------

         WAVEFUNCTION NORMALIZATION =       1.0000000000

                ONE ELECTRON ENERGY =    -123.1075620081
                TWO ELECTRON ENERGY =      37.8253974741
           NUCLEAR REPULSION ENERGY =       9.1892146195
                                      ------------------
                       TOTAL ENERGY =     -76.0929499145

 ELECTRON-ELECTRON POTENTIAL ENERGY =      37.8253974741
  NUCLEUS-ELECTRON POTENTIAL ENERGY =    -199.2689883735
   NUCLEUS-NUCLEUS POTENTIAL ENERGY =       9.1892146195
                                      ------------------
             TOTAL POTENTIAL ENERGY =    -152.2543762799
               TOTAL KINETIC ENERGY =      76.1614263654
                 VIRIAL RATIO (V/T) =       1.9991009038

          ---------------------------------------
          MULLIKEN AND LOWDIN POPULATION ANALYSES
          ---------------------------------------

     ATOMIC MULLIKEN POPULATION IN EACH MOLECULAR ORBITAL

                      1          2          3          4          5

                  2.000000   2.000000   2.000000   2.000000   2.000000

    1             1.999632   2.042939   1.967819   1.738513   1.967241
    2             0.000184  -0.021469   0.016090   0.130744   0.016379
    3             0.000184  -0.021469   0.016090   0.130744   0.016379

               ----- POPULATIONS IN EACH AO -----
                             MULLIKEN      LOWDIN
              1  O  1  S      1.08360     1.02971
              2  O  1  S      0.91152     0.91458
              3  O  1  X      0.38544     0.37215
              4  O  1  Y      0.25588     0.24078
              5  O  1  Z      0.30999     0.29498
              6  O  1  S      1.01168     0.32722
              7  O  1  X      0.78946     0.45163
              8  O  1  Y      0.57638     0.32503
              9  O  1  Z      0.66254     0.37946
             10  O  1  S      0.63988     0.27785
             11  O  1  X      0.77510     0.58371
             12  O  1  Y      0.36420     0.37658
             13  O  1  Z      0.57040     0.49865
             14  O  1 XX      0.00675     0.12633
             15  O  1 YY      0.01001     0.13117
             16  O  1 ZZ      0.00745     0.12691
             17  O  1 XY      0.00000     0.00000
             18  O  1 XZ      0.00017     0.00013
             19  O  1 YZ      0.00174     0.00112
             20  O  1 XX      0.04128     0.10865
             21  O  1 YY      0.04970     0.11756
             22  O  1 ZZ      0.04283     0.10962
             23  O  1 XY      0.00000     0.00000
             24  O  1 XZ      0.00233     0.00034
             25  O  1 YZ      0.00732     0.02462
             26  O  1 XXX    -0.00019     0.26217
             27  O  1 YYY     0.01435     0.20011
             28  O  1 ZZZ     0.00969     0.21965
             29  O  1 XXY    -0.00308     0.07541
             30  O  1 XXZ    -0.00268     0.09375
             31  O  1 YYX     0.00959     0.11935
             32  O  1 YYZ     0.00944     0.12509
             33  O  1 ZZX     0.00601     0.11936
             34  O  1 ZZY     0.00491     0.10497
             35  O  1 XYZ     0.00000     0.00000
             36  O  1XXXX    -0.00729     0.05565
             37  O  1YYYY    -0.00159     0.06197
             38  O  1ZZZZ    -0.00454     0.05652
             39  O  1XXXY     0.00000     0.00000
             40  O  1XXXZ    -0.00012     0.00020
             41  O  1YYYX     0.00000     0.00000
             42  O  1YYYZ     0.00234     0.00511
             43  O  1ZZZX    -0.00005     0.00018
             44  O  1ZZZY     0.00105     0.00378
             45  O  1XXYY    -0.00468     0.06466
             46  O  1XXZZ    -0.00438     0.06263
             47  O  1YYZZ     0.00141     0.07246
             48  O  1XXYZ     0.00012     0.00100
             49  O  1YYXZ     0.00007     0.00005
             50  O  1ZZXY     0.00000     0.00000
             51  H  2  S      0.26770     0.23094
             52  H  2  S      0.37265     0.29330
             53  H  2  S      0.04272     0.09891
             54  H  2  X      0.01609     0.04535
             55  H  2  Y      0.01686     0.03161
             56  H  2  Z      0.01598     0.03846
             57  H  3  S      0.26770     0.23094
             58  H  3  S      0.37265     0.29330
             59  H  3  S      0.04272     0.09891
             60  H  3  X      0.01609     0.04535
             61  H  3  Y      0.01686     0.03161
             62  H  3  Z      0.01598     0.03846

          ----- MULLIKEN ATOMIC OVERLAP POPULATIONS -----
          (OFF-DIAGONAL ELEMENTS NEED TO BE MULTIPLIED BY 2)

             1           2           3

    1    7.9314366
    2    0.3022917   0.4586531
    3    0.3022917  -0.0289548   0.4586531

          TOTAL MULLIKEN AND LOWDIN ATOMIC POPULATIONS
       ATOM         MULL.POP.    CHARGE          LOW.POP.     CHARGE
    1 O             8.536020   -0.536020         8.522866   -0.522866
    2 H             0.731990    0.268010         0.738567    0.261433
    3 H             0.731990    0.268010         0.738567    0.261433

          -------------------------------
          BOND ORDER AND VALENCE ANALYSIS     BOND ORDER THRESHOLD=0.050
          -------------------------------

                   BOND                       BOND                       BOND
  ATOM PAIR DIST  ORDER      ATOM PAIR DIST  ORDER      ATOM PAIR DIST  ORDER
    1   2  0.958  0.908        1   3  0.958  0.908

                       TOTAL       BONDED        FREE
      ATOM            VALENCE     VALENCE     VALENCE
    1 O                 1.902       1.816       0.086
    2 H                 0.949       0.913       0.036
    3 H                 0.949       0.913       0.036

          ---------------------
          ELECTROSTATIC MOMENTS
          ---------------------

 POINT   1           X           Y           Z (BOHR)    CHARGE
                 0.000000    0.000000    0.124046        0.00 (A.U.)
         DX          DY          DZ         /D/  (DEBYE)
     0.000000    0.000000    1.976499    1.976499
 ...... END OF PROPERTY EVALUATION ......
 STEP CPU TIME =     0.01 TOTAL CPU TIME =       10.3 (    0.2 MIN)
 TOTAL WALL CLOCK TIME=       10.3 SECONDS, CPU UTILIZATION IS  99.61%
               580000  WORDS OF DYNAMIC MEMORY USED
 EXECUTION OF GAMESS TERMINATED NORMALLY Mon Oct 14 07:27:34 2013
 DDI: 263624 bytes (0.3 MB / 0 MWords) used by master data server.

 ----------------------------------------
 CPU timing information for all processes
 ========================================
 0: 10.104 + 0.204 = 10.308
 ----------------------------------------
 ddikick.x: exited gracefully.
unset echo
----- accounting info -----
Files used on the master node titch-64 were:
-rw-r--r-- 1 brian brian    2020 Oct 14 07:27 /scr/brian/exam-vb06.F05
-rw-rw-r-- 1 brian brian 8100720 Oct 14 07:27 /scr/brian/exam-vb06.F08
-rw-rw-r-- 1 brian brian 1505120 Oct 14 07:27 /scr/brian/exam-vb06.F10
-rw-rw-r-- 1 brian brian      88 Oct 14 07:27 /scr/brian/exam-vb06.TEMP02
-rw-rw-r-- 1 brian brian      88 Oct 14 07:27 /scr/brian/exam-vb06.TEMP03
-rw-rw-r-- 1 brian brian     448 Oct 14 07:27 /scr/brian/exam-vb06.TEMP04
-rw-rw-r-- 1 brian brian     729 Oct 14 07:27 /scr/brian/exam-vb06.V80
-rw-rw-r-- 1 brian brian       0 Oct 14 07:27 /scr/brian/exam-vb06.V82
-rw-rw-r-- 1 brian brian       0 Oct 14 07:27 /scr/brian/exam-vb06.V83
-rw-rw-r-- 1 brian brian   31744 Oct 14 07:27 /scr/brian/exam-vb06.V84
-rw-rw-r-- 1 brian brian 2058048 Oct 14 07:27 /scr/brian/exam-vb06.V85
-rw-rw-r-- 1 brian brian  196592 Oct 14 07:27 /scr/brian/exam-vb06.V86
-rw-rw-r-- 1 brian brian  589776 Oct 14 07:27 /scr/brian/exam-vb06.V87
-rw-rw-r-- 1 brian brian     736 Oct 14 07:27 /scr/brian/exam-vb06.V88
-rw-rw-r-- 1 brian brian       0 Oct 14 07:27 /scr/brian/exam-vb06.V89
ls: No match.
ls: No match.
ls: No match.
Mon Oct 14 07:27:37 EST 2013
0.088u 0.008s 0:13.49 0.5%	0+0k 8+16io 0pf+0w
