----- GAMESS execution script 'rungms' -----
This job is running on host titch-64
under operating system Linux at Mon Oct 14 07:29:57 EST 2013
Available scratch disk space (Kbyte units) at beginning of the job is
Filesystem     1K-blocks      Used Available Use% Mounted on
/dev/sda1      945022356 138268740 758749264  16% /
GAMESS temporary binary files will be written to /scr/brian
GAMESS supplementary output files will be written to /home/brian/scr
Copying input file exam-vb22.inp to your run's scratch directory...
cp tests/exam-vb22.inp /scr/brian/exam-vb22.F05
unset echo
/home/brian/qchem/gamess/ddikick.x /home/brian/qchem/gamess/gamess.01.x exam-vb22 -ddi 1 1 titch-64 -scr /scr/brian

 Distributed Data Interface kickoff program.
 Initiating 1 compute processes on 1 nodes to run the following command:
 /home/brian/qchem/gamess/gamess.01.x exam-vb22 

          ******************************************************
          *         GAMESS VERSION =  1 MAY 2013 (R1)          *
          *             FROM IOWA STATE UNIVERSITY             *
          * M.W.SCHMIDT, K.K.BALDRIDGE, J.A.BOATZ, S.T.ELBERT, *
          *   M.S.GORDON, J.H.JENSEN, S.KOSEKI, N.MATSUNAGA,   *
          *          K.A.NGUYEN, S.J.SU, T.L.WINDUS,           *
          *       TOGETHER WITH M.DUPUIS, J.A.MONTGOMERY       *
          *         J.COMPUT.CHEM.  14, 1347-1363(1993)        *
          **************** 64 BIT LINUX VERSION ****************

  SINCE 1993, STUDENTS AND POSTDOCS WORKING AT IOWA STATE UNIVERSITY
  AND ALSO IN THEIR VARIOUS JOBS AFTER LEAVING ISU HAVE MADE IMPORTANT
  CONTRIBUTIONS TO THE CODE:
     IVANA ADAMOVIC, CHRISTINE AIKENS, YURI ALEXEEV, POOJA ARORA,
     ANDREY ASADCHEV, ROB BELL, PRADIPTA BANDYOPADHYAY, JONATHAN BENTZ,
     BRETT BODE, GALINA CHABAN, WEI CHEN, CHEOL HO CHOI, PAUL DAY,
     ALBERT DEFUSCO, TIM DUDLEY, DMITRI FEDOROV, GRAHAM FLETCHER,
     MARK FREITAG, KURT GLAESEMANN, DAN KEMP, GRANT MERRILL,
     NORIYUKI MINEZAWA, JONATHAN MULLIN, TAKESHI NAGATA,
     SEAN NEDD, HEATHER NETZLOFF, BOSILJKA NJEGIC, RYAN OLSON, MIKE PAK,
     JIM SHOEMAKER, LYUDMILA SLIPCHENKO, SAROM SOK, JIE SONG,
     TETSUYA TAKETSUGU, SIMON WEBB, SOOHAENG YOO, FEDERICO ZAHARIEV

  ADDITIONAL CODE HAS BEEN PROVIDED BY COLLABORATORS IN OTHER GROUPS:
     IOWA STATE UNIVERSITY:
          JOE IVANIC, LAIMUTIS BYTAUTAS, KLAUS RUEDENBERG
     UNIVERSITY OF TOKYO: KIMIHIKO HIRAO, TAKAHITO NAKAJIMA,
          TAKAO TSUNEDA, MUNEAKI KAMIYA, SUSUMU YANAGISAWA,
          KIYOSHI YAGI, MAHITO CHIBA, SEIKEN TOKURA, NAOAKI KAWAKAMI
     UNIVERSITY OF AARHUS: FRANK JENSEN
     UNIVERSITY OF IOWA: VISVALDAS KAIRYS, HUI LI
     NATIONAL INST. OF STANDARDS AND TECHNOLOGY: WALT STEVENS, DAVID GARMER
     UNIVERSITY OF PISA: BENEDETTA MENNUCCI, JACOPO TOMASI
     UNIVERSITY OF MEMPHIS: HENRY KURTZ, PRAKASHAN KORAMBATH
     UNIVERSITY OF ALBERTA: TOBY ZENG, MARIUSZ KLOBUKOWSKI
     UNIVERSITY OF NEW ENGLAND: MARK SPACKMAN
     MIE UNIVERSITY: HIROAKI UMEDA
     MICHIGAN STATE UNIVERSITY:
          KAROL KOWALSKI, MARTA WLOCH, JEFFREY GOUR, JESSE LUTZ,
          WEI LI, PIOTR PIECUCH
     UNIVERSITY OF SILESIA: MONIKA MUSIAL, STANISLAW KUCHARSKI
     FACULTES UNIVERSITAIRES NOTRE-DAME DE LA PAIX:
          OLIVIER QUINET, BENOIT CHAMPAGNE
     UNIVERSITY OF CALIFORNIA - SANTA BARBARA: BERNARD KIRTMAN
     INSTITUTE FOR MOLECULAR SCIENCE:
          KAZUYA ISHIMURA, MICHIO KATOUDA, AND SHIGERU NAGASE
     UNIVERSITY OF NOTRE DAME: DAN CHIPMAN
     KYUSHU UNIVERSITY:
          HARUYUKI NAKANO,
          FENG LONG GU, JACEK KORCHOWIEC, MARCIN MAKOWSKI, AND YURIKO AOKI,
          HIROTOSHI MORI AND EISAKU MIYOSHI
     PENNSYLVANIA STATE UNIVERSITY:
          TZVETELIN IORDANOV, CHET SWALINA, JONATHAN SKONE,
          SHARON HAMMES-SCHIFFER
     WASEDA UNIVERSITY:
          MASATO KOBAYASHI, TOMOKO AKAMA, TSUGUKI TOUMA,
          TAKESHI YOSHIKAWA, YASUHIRO IKABATA, HIROMI NAKAI
     NANJING UNIVERSITY: SHUHUA LI
     UNIVERSITY OF NEBRASKA:
          PEIFENG SU, DEJUN SI, NANDUN THELLAMUREGE, YALI WANG, HUI LI
     UNIVERSITY OF ZURICH:
          ROBERTO PEVERATI, KIM BALDRIDGE
     N. COPERNICUS UNIVERSITY AND JACKSON STATE UNIVERSITY:
          MARIA BARYSZ

 EXECUTION OF GAMESS BEGUN Mon Oct 14 07:29:57 2013

            ECHO OF THE FIRST FEW INPUT CARDS -
 INPUT CARD>! GAMESS/VB2000 Test 22.                                                        
 INPUT CARD>! This run is another test of an open shell case.                               
 INPUT CARD>!                                                                               
 INPUT CARD>! The final energies are:-                                                      
 INPUT CARD>!                                                                               
 INPUT CARD>! ROHF ENERGY IS -1.9474434093 AFTER   8 ITERATIONS                             
 INPUT CARD>!                                                                               
 INPUT CARD>! ENERGY AND DIFF OF MACROITER    3 =     -1.98199012      0.00000000           
 INPUT CARD>!                                                                               
 INPUT CARD>! The spin densities are:-                                                      
 INPUT CARD>!                                                                               
 INPUT CARD>!    1     -0.26458                                                             
 INPUT CARD>!    2      0.75486                                                             
 INPUT CARD>!    3      0.75486                                                             
 INPUT CARD>!    4      0.75486                                                             
 INPUT CARD>!                                                                               
 INPUT CARD> $CONTRL SCFTYP=ROHF MULT=3 COORD=UNIQUE                                        
 INPUT CARD>   VBTYP=VB2000                                                                 
 INPUT CARD> $END                                                                           
 INPUT CARD> $SYSTEM TIMLIM=20 MEMORY=2000000 $END                                          
 INPUT CARD> $BASIS GBASIS=STO NGAUSS=3 $END                                                
 INPUT CARD> $GUESS  GUESS=HUCKEL $END                                                      
 INPUT CARD> $DATA                                                                          
 INPUT CARD>H4 TMM-like triplet SPDEN test                                                  
 INPUT CARD>C1                                                                              
 INPUT CARD>H1  1.0     0.0000000000        0.0000000000        0.0000000000                
 INPUT CARD>H2  1.0     0.0000000000        1.0000000000        0.0000000000                
 INPUT CARD>H3  1.0     0.8660254038       -0.5000000000        0.0000000000                
 INPUT CARD>H4  1.0    -0.8660254038       -0.5000000000        0.0000000000                
 INPUT CARD> $END                                                                           
 INPUT CARD> $VB2000                                                                        
 INPUT CARD>#! SCVB(4)/STO-3G PRINTALL                                                      
 INPUT CARD>                                                                                
 INPUT CARD>H4 TMM-like triplet SPDEN test                                                  
 INPUT CARD>                                                                                
 INPUT CARD>0 3                                                                             
 INPUT CARD>1     0.0000000000        0.0000000000        0.0000000000                      
 INPUT CARD>1     0.0000000000        1.0000000000        0.0000000000                      
 INPUT CARD>1     0.8660254038       -0.5000000000        0.0000000000                      
 INPUT CARD>1    -0.8660254038       -0.5000000000        0.0000000000                      
 INPUT CARD>                                                                                
 INPUT CARD>                                                                                
 INPUT CARD> $GRPDIM                                                                        
 INPUT CARD> 4                                                                              
 INPUT CARD>                                                                                
 INPUT CARD> $01VBORB                                                                       
 INPUT CARD> 2-1                                                                            
 INPUT CARD> 3-4                                                                            
 INPUT CARD>                                                                                
 INPUT CARD> $SPDEN                                                                         
    2000000 WORDS OF MEMORY AVAILABLE

     BASIS OPTIONS
     -------------
     GBASIS=STO          IGAUSS=       3      POLAR=NONE    
     NDFUNC=       0     NFFUNC=       0     DIFFSP=       F
     NPFUNC=       0      DIFFS=       F     BASNAM=        


     RUN TITLE
     ---------
 H4 TMM-like triplet SPDEN test                                                  

 THE POINT GROUP OF THE MOLECULE IS C1      
 THE ORDER OF THE PRINCIPAL AXIS IS     0

 ATOM      ATOMIC                      COORDINATES (BOHR)
           CHARGE         X                   Y                   Z
 H1          1.0     0.0000000000        0.0000000000        0.0000000000
 H2          1.0     0.0000000000        1.8897259877        0.0000000000
 H3          1.0     1.6365507116       -0.9448629939        0.0000000000
 H4          1.0    -1.6365507116       -0.9448629939        0.0000000000

          INTERNUCLEAR DISTANCES (ANGS.)
          ------------------------------

                1 H1         2 H2         3 H3         4 H4    

   1 H1      0.0000000    1.0000000 *  1.0000000 *  1.0000000 *
   2 H2      1.0000000 *  0.0000000    1.7320508 *  1.7320508 *
   3 H3      1.0000000 *  1.7320508 *  0.0000000    1.7320508 *
   4 H4      1.0000000 *  1.7320508 *  1.7320508 *  0.0000000  

  * ... LESS THAN  3.000


     ATOMIC BASIS SET
     ----------------
 THE CONTRACTED PRIMITIVE FUNCTIONS HAVE BEEN UNNORMALIZED
 THE CONTRACTED BASIS FUNCTIONS ARE NOW NORMALIZED TO UNITY

  SHELL TYPE  PRIMITIVE        EXPONENT          CONTRACTION COEFFICIENT(S)

 H1        

      1   S       1             3.4252509    0.154328967295
      1   S       2             0.6239137    0.535328142282
      1   S       3             0.1688554    0.444634542185

 H2        

      2   S       4             3.4252509    0.154328967295
      2   S       5             0.6239137    0.535328142282
      2   S       6             0.1688554    0.444634542185

 H3        

      3   S       7             3.4252509    0.154328967295
      3   S       8             0.6239137    0.535328142282
      3   S       9             0.1688554    0.444634542185

 H4        

      4   S      10             3.4252509    0.154328967295
      4   S      11             0.6239137    0.535328142282
      4   S      12             0.1688554    0.444634542185

 TOTAL NUMBER OF BASIS SET SHELLS             =    4
 NUMBER OF CARTESIAN GAUSSIAN BASIS FUNCTIONS =    4
 NUMBER OF ELECTRONS                          =    4
 CHARGE OF MOLECULE                           =    0
 SPIN MULTIPLICITY                            =    3
 NUMBER OF OCCUPIED ORBITALS (ALPHA)          =    3
 NUMBER OF OCCUPIED ORBITALS (BETA )          =    1
 TOTAL NUMBER OF ATOMS                        =    4
 THE NUCLEAR REPULSION ENERGY IS        2.5040936296

     $CONTRL OPTIONS
     ---------------
 SCFTYP=ROHF         RUNTYP=ENERGY       EXETYP=RUN     
 MPLEVL=       0     CITYP =NONE         CCTYP =NONE         VBTYP =VB2000  
 DFTTYP=NONE         TDDFT =NONE    
 MULT  =       3     ICHARG=       0     NZVAR =       0     COORD =UNIQUE  
 PP    =NONE         RELWFN=NONE         LOCAL =NONE         NUMGRD=       F
 ISPHER=      -1     NOSYM =       0     MAXIT =      30     UNITS =ANGS    
 PLTORB=       F     MOLPLT=       F     AIMPAC=       F     FRIEND=        
 NPRINT=       7     IREST =       0     GEOM  =INPUT   
 NORMF =       0     NORMP =       0     ITOL  =      20     ICUT  =       9
 INTTYP=BEST         GRDTYP=BEST         QMTTOL= 1.0E-06

     $SYSTEM OPTIONS
     ---------------
  REPLICATED MEMORY=     2000000 WORDS (ON EVERY NODE).
 DISTRIBUTED MEMDDI=           0 MILLION WORDS IN AGGREGATE,
 MEMDDI DISTRIBUTED OVER   1 PROCESSORS IS           0 WORDS/PROCESSOR.
 TOTAL MEMORY REQUESTED ON EACH PROCESSOR=     2000000 WORDS.
 TIMLIM=          20.00 MINUTES, OR       0.0 DAYS.
 PARALL= F  BALTYP=  DLB     KDIAG=    0  COREFL= F
 MXSEQ2=     300 MXSEQ3=     150

          ----------------
          PROPERTIES INPUT
          ----------------

     MOMENTS            FIELD           POTENTIAL          DENSITY
 IEMOM =       1   IEFLD =       0   IEPOT =       0   IEDEN =       0
 WHERE =COMASS     WHERE =NUCLEI     WHERE =NUCLEI     WHERE =NUCLEI  
 OUTPUT=BOTH       OUTPUT=BOTH       OUTPUT=BOTH       OUTPUT=BOTH    
 IEMINT=       0   IEFINT=       0                     IEDINT=       0
                                                       MORB  =       0
          EXTRAPOLATION IN EFFECT
 ORBITAL PRINTING OPTION: NPREO=     1     4     2     1

     -------------------------------
     INTEGRAL TRANSFORMATION OPTIONS
     -------------------------------
     NWORD  =            0
     CUTOFF = 1.0E-09     MPTRAN =       0
     DIRTRF =       F     AOINTS =DUP     

          ----------------------
          INTEGRAL INPUT OPTIONS
          ----------------------
 NOPK  =       1 NORDER=       0 SCHWRZ=       F

     ------------------------------------------
     THE POINT GROUP IS C1 , NAXIS= 0, ORDER= 1
     ------------------------------------------

     DIMENSIONS OF THE SYMMETRY SUBSPACES ARE
 A   =    4

 ..... DONE SETTING UP THE RUN .....
 STEP CPU TIME =     0.00 TOTAL CPU TIME =        0.0 (    0.0 MIN)
 TOTAL WALL CLOCK TIME=        0.0 SECONDS, CPU UTILIZATION IS   0.00%

          ********************
          1 ELECTRON INTEGRALS
          ********************
 ...... END OF ONE-ELECTRON INTEGRALS ......
 STEP CPU TIME =     0.00 TOTAL CPU TIME =        0.0 (    0.0 MIN)
 TOTAL WALL CLOCK TIME=        0.0 SECONDS, CPU UTILIZATION IS   0.00%

          -------------
          GUESS OPTIONS
          -------------
          GUESS =HUCKEL            NORB  =       0          NORDER=       0
          MIX   =       F          PRTMO =       F          PUNMO =       F
          TOLZ  = 1.0E-08          TOLE  = 1.0E-05
          SYMDEN=       F          PURIFY=       F

 INITIAL GUESS ORBITALS GENERATED BY HUCKEL   ROUTINE.
 HUCKEL GUESS REQUIRES      2744 WORDS.

 SYMMETRIES FOR INITIAL GUESS ORBITALS FOLLOW.  ALPHA SET(S).
     3 ORBITALS ARE OCCUPIED (    0 CORE ORBITALS).
     1=A        2=A        3=A        4=A   

 SYMMETRIES FOR INITIAL GUESS ORBITALS FOLLOW.   BETA SET(S).
     1 ORBITALS ARE OCCUPIED (    0 CORE ORBITALS).
     1=A        2=A        3=A        4=A   
 ...... END OF INITIAL ORBITAL SELECTION ......
 STEP CPU TIME =     0.00 TOTAL CPU TIME =        0.0 (    0.0 MIN)
 TOTAL WALL CLOCK TIME=        0.0 SECONDS, CPU UTILIZATION IS   0.00%

                    ----------------------
                    AO INTEGRAL TECHNOLOGY
                    ----------------------
     S,P,L SHELL ROTATED AXIS INTEGRALS, REPROGRAMMED BY
        KAZUYA ISHIMURA (IMS) AND JOSE SIERRA (SYNSTAR).
     S,P,D,L SHELL ROTATED AXIS INTEGRALS PROGRAMMED BY
        KAZUYA ISHIMURA (INSTITUTE FOR MOLECULAR SCIENCE).
     S,P,D,F,G SHELL TO TOTAL QUARTET ANGULAR MOMENTUM SUM 5,
        ERIC PROGRAM BY GRAHAM FLETCHER (ELORET AND NASA ADVANCED
        SUPERCOMPUTING DIVISION, AMES RESEARCH CENTER).
     S,P,D,F,G,L SHELL GENERAL RYS QUADRATURE PROGRAMMED BY
        MICHEL DUPUIS (PACIFIC NORTHWEST NATIONAL LABORATORY).

          --------------------
          2 ELECTRON INTEGRALS
          --------------------

 THE -PK- OPTION IS OFF, THE INTEGRALS ARE NOT IN SUPERMATRIX FORM.
 STORING   15000 INTEGRALS/RECORD ON DISK, USING 12 BYTES/INTEGRAL.
 TWO ELECTRON INTEGRAL EVALUATION REQUIRES   89366 WORDS OF MEMORY.
 II,JST,KST,LST =  1  1  1  1 NREC =         1 INTLOC =    1
 II,JST,KST,LST =  2  1  1  1 NREC =         1 INTLOC =    2
 II,JST,KST,LST =  3  1  1  1 NREC =         1 INTLOC =    7
 II,JST,KST,LST =  4  1  1  1 NREC =         1 INTLOC =   22
 TOTAL NUMBER OF NONZERO TWO-ELECTRON INTEGRALS =                  55
          1 INTEGRAL RECORDS WERE STORED ON DISK FILE  8.
  ...... END OF TWO-ELECTRON INTEGRALS .....
 STEP CPU TIME =     0.01 TOTAL CPU TIME =        0.0 (    0.0 MIN)
 TOTAL WALL CLOCK TIME=        0.0 SECONDS, CPU UTILIZATION IS  33.33%

          ---------------------------
                 ROHF SCF CALCULATION
          ---------------------------

     NUCLEAR ENERGY =         2.5040936296
     MAXIT = 30     NPUNCH=  2     MULT=  3
     EXTRAP=T  DAMP=F  SHIFT=F  RSTRCT=F  DIIS=F  SOSCF=F
     DENSITY MATRIX CONV=  1.00E-05
     ROHF CANONICALIZATION PARAMETERS
             C-C     O-O     V-V
     ALPHA -0.5000  0.5000  1.5000
     BETA   1.5000  0.5000 -0.5000
     MEMORY REQUIRED FOR UHF/ROHF ITERS=     30204 WORDS.

 ITER EX      TOTAL ENERGY        E CHANGE  DENSITY CHANGE    DIIS ERROR
   1  0       -1.9431875749    -1.9431875749   0.133905497   0.000000000
   2  1       -1.9472953503    -0.0041077755   0.026190537   0.000000000
   3  2       -1.9474382129    -0.0001428625   0.004864987   0.000000000
   4  3       -1.9474432272    -0.0000050143   0.000912277   0.000000000
   5  4       -1.9474434029    -0.0000001758   0.000170765   0.000000000
   6  5       -1.9474434091    -0.0000000062   0.000031975   0.000000000
   7  6       -1.9474434093    -0.0000000002   0.000005987   0.000000000
   8  7       -1.9474434093    -0.0000000000   0.000001121   0.000000000

          -----------------
          DENSITY CONVERGED
          -----------------
     TIME TO FORM FOCK OPERATORS=       0.0 SECONDS (       0.0 SEC/ITER)
     TIME TO SOLVE SCF EQUATIONS=       0.0 SECONDS (       0.0 SEC/ITER)

 FINAL ROHF ENERGY IS       -1.9474434093 AFTER   8 ITERATIONS

          --------------------
          SPIN SZ   =    1.000
          S-SQUARED =    2.000
          --------------------

          ------------
          EIGENVECTORS
          ------------

                      1          2          3          4
                   -0.4342    -0.0315    -0.0315     0.6168
                     A          A          A          A   
    1  H  1  S    0.513017   0.000000   0.000000   1.385707
    2  H  2  S    0.276850  -0.000015   0.902880  -0.675848
    3  H  3  S    0.276850   0.781924  -0.451427  -0.675848
    4  H  4  S    0.276850  -0.781909  -0.451453  -0.675848
 ...... END OF ROHF CALCULATION ......
 STEP CPU TIME =     0.00 TOTAL CPU TIME =        0.0 (    0.0 MIN)
 TOTAL WALL CLOCK TIME=        0.0 SECONDS, CPU UTILIZATION IS  33.33%

     ----------------------------------------------------------------
     PROPERTY VALUES FOR THE ROHF  SELF-CONSISTENT FIELD WAVEFUNCTION
     ----------------------------------------------------------------

          -----------------
          ENERGY COMPONENTS
          -----------------

         WAVEFUNCTION NORMALIZATION =       1.0000000000

                ONE ELECTRON ENERGY =      -6.8977623200
                TWO ELECTRON ENERGY =       2.4462252811
           NUCLEAR REPULSION ENERGY =       2.5040936296
                                      ------------------
                       TOTAL ENERGY =      -1.9474434093

 ELECTRON-ELECTRON POTENTIAL ENERGY =       2.4462252811
  NUCLEUS-ELECTRON POTENTIAL ENERGY =      -9.7017500746
   NUCLEUS-NUCLEUS POTENTIAL ENERGY =       2.5040936296
                                      ------------------
             TOTAL POTENTIAL ENERGY =      -4.7514311639
               TOTAL KINETIC ENERGY =       2.8039877546
                 VIRIAL RATIO (V/T) =       1.6945263602

  ...... PI ENERGY ANALYSIS ......

 ENERGY ANALYSIS:
            FOCK ENERGY=     -2.0053114414
          BARE H ENERGY=     -6.8977623200
     ELECTRONIC ENERGY =     -4.4515368807
         KINETIC ENERGY=      2.8039877546
          N-N REPULSION=      2.5040936296
           TOTAL ENERGY=     -1.9474432511
        SIGMA PART(1+2)=     -4.4515368807
               (K,V1,2)=      2.8039877546     -9.7017500746      2.4462254393
           PI PART(1+2)=      0.0000000000
               (K,V1,2)=      0.0000000000      0.0000000000      0.0000000000
  SIGMA SKELETON, ERROR=     -1.9474432511      0.0000000000
             MIXED PART= 0.00000E+00 0.00000E+00 0.00000E+00 0.00000E+00
 ...... END OF PI ENERGY ANALYSIS ......

          ---------------------------------------
          MULLIKEN AND LOWDIN POPULATION ANALYSES
          ---------------------------------------

     ATOMIC MULLIKEN POPULATION IN EACH MOLECULAR ORBITAL

                      1          2          3

                  2.000000   1.000000   1.000000

    1             0.949461   0.000000   0.000000
    2             0.350180   0.000000   0.666667
    3             0.350180   0.500010   0.166657
    4             0.350180   0.499990   0.166676

     ATOMIC SPIN POPULATION (ALPHA MINUS BETA)
       ATOM         MULL.POP.                    LOW.POP.
    1 H1            0.000000                     0.000000
    2 H2            0.666667                     0.666667
    3 H3            0.666667                     0.666667
    4 H4            0.666667                     0.666667

               ----- POPULATIONS IN EACH AO -----
                             MULLIKEN      LOWDIN
              1  H  1  S      0.94946     0.89792
              2  H  2  S      1.01685     1.03403
              3  H  3  S      1.01685     1.03403
              4  H  4  S      1.01685     1.03403

          ----- MULLIKEN ATOMIC OVERLAP POPULATIONS -----
          (OFF-DIAGONAL ELEMENTS NEED TO BE MULTIPLIED BY 2)

             1           2           3           4

    1    0.5263719
    2    0.1410298   0.9684834
    3    0.1410298  -0.0463335   0.9684834
    4    0.1410298  -0.0463335  -0.0463335   0.9684834

          TOTAL MULLIKEN AND LOWDIN ATOMIC POPULATIONS
       ATOM         MULL.POP.    CHARGE          LOW.POP.     CHARGE
    1 H1            0.949461    0.050539         0.897922    0.102078
    2 H2            1.016846   -0.016846         1.034026   -0.034026
    3 H3            1.016846   -0.016846         1.034026   -0.034026
    4 H4            1.016846   -0.016846         1.034026   -0.034026

          -------------------------------
          BOND ORDER AND VALENCE ANALYSIS     BOND ORDER THRESHOLD=0.050
          -------------------------------

                   BOND                       BOND                       BOND
  ATOM PAIR DIST  ORDER      ATOM PAIR DIST  ORDER      ATOM PAIR DIST  ORDER
    1   2  1.000  0.332        1   3  1.000  0.332        1   4  1.000  0.332
    2   3  1.732  0.111        2   4  1.732  0.111        3   4  1.732  0.111

                       TOTAL       BONDED        FREE
      ATOM            VALENCE     VALENCE     VALENCE
    1 H1                0.997       0.997       0.000
    2 H2                1.000       0.555       0.444
    3 H3                1.000       0.555       0.444
    4 H4                1.000       0.555       0.444

          -----------------------------------------
          ATOMIC SPIN DENSITY AT THE NUCLEUS (A.U.)
          -----------------------------------------
                            SPIN DENS    ALPHA DENS     BETA DENS
    1  H1           1.0    -0.0000000       0.14761       0.14761
    2  H2           1.0     0.3075616       0.35593       0.04837
    3  H3           1.0     0.3075616       0.35593       0.04837
    4  H4           1.0     0.3075616       0.35593       0.04837

          ---------------------
          ELECTROSTATIC MOMENTS
          ---------------------

 POINT   1           X           Y           Z (BOHR)    CHARGE
                 0.000000   -0.000000    0.000000        0.00 (A.U.)
         DX          DY          DZ         /D/  (DEBYE)
    -0.000000    0.000000    0.000000    0.000000
 ...... END OF PROPERTY EVALUATION ......
 STEP CPU TIME =     0.01 TOTAL CPU TIME =        0.0 (    0.0 MIN)
 TOTAL WALL CLOCK TIME=        0.0 SECONDS, CPU UTILIZATION IS  66.67%

 **************************************************************
 *                                                            *
 *         ENTERING VB2000 INTERFACED INTO GAMESS(US)         *
 *                                                            *
 **************************************************************

 **************************************************************
 *                                                            *
 *                        V B 2 0 0 0                         *
 *                                                            *
 *       An ab initio Valence-Bond Program Based on the       *
 *           Generalized Product Function Method and          *
 *                   the Algebrant Algorithm                  *
 *                                                            *
 *                   Version 2.7 October 2013                 *
 *                      GAMESS(US) Version                    *
 *                     Compiler: gfortran                     *
 *                                                            *
 *         Jiabo Li*, Brian Duke** and Roy McWeeny***         *
 *                                                            *
 *        * SciNet Technologies, 9943 Fieldthorn St.,         *
 *                   San Diego, CA 92127, USA                 *
 *                                                            *
 *  ** Monash University Institute of Pharmaceutical Sciences,*
 *     381 Royal Pde, Parkville, Victoria, 3052, Australia    *
 *                                                            *
 * *** Department of Chemistry, University of Pisa,           *
 *     56100 Pisa, Italy                                      *
 *                                                            *
 *  Reference for the software:                               *
 *     Jiabo Li, Brian Duke, and Roy McWeeny, VB2000 Version  *
 *     2.7, SciNet Technologies, San Diego, CA, 2013          *
 *     URL: http://www.scinetec.com or http://www.vb2000.net  *
 *                                                            *
 *  References for the theory:                                *
 *     General:                                               *
 *     Jiabo Li, and Roy McWeeny, "VB2000: Pushing Valence    *
 *     Bond Theory to New Limits", Int. J. Quantum Chem.,     *
 *     89(2002)208-216.                                       *
 *                                                            *
 *     Spin densities:-                                       *
 *     Jiabo Li, Brian J. Duke, Thomas M. Klapoetke, and Roy  *
 *     McWeeny, Spin-Density of Spin-Free Valence Bond Wave   *
 *     Functions and Its Implementation in VB2000. J. Theor.  *
 *     Comp. Chem. 7(2008)853-867.                            *
 *                                                            *
 *     Spin coupled - n electrons in m orbitals:-             *
 *     Peter B. Karadakov, David L. Cooper, Brian J. Duke,    *
 *     and Jiabo Li, Spin-Coupled Theory for N Electrons in   *
 *     M Orbitals Active Spaces,  J. Phys. Chem. A, 116,      *
 *     7238 - 7244, 2012                                      *
 *                                                            *
 *  Copyright (C) 2000-2013 by SciNet Technologies            *
 **************************************************************

 JOB NAME IS exam-vb22                                                       

 VB2000 DIRECTORY IS: /home/brian/qchem/gamess/vb2000                                                 
 MAXIMUM MEMORY USE IS:     6500000
 THIS IS TAKEN AS THE MAXIMUM OF THE UNUSED MEMORY REQUESTED
 IN GAMESS $SYSTEM BLOCK AND MEMORY REQUESTED IN VB2000 DATA

 Input of molecule
 =================
 #! SCVB(4)/STO-3G PRINTALL                                                      
                                                                                 
 Title: H4 TMM-like triplet SPDEN test                                                  

 Charge =  0 Multiplicity =  3

 ATOM      ATOMIC                      COORDINATES (ANGS)
           CHARGE         X                   Y                   Z
 H1          1.0     0.0000000000        0.0000000000        0.0000000000
 H2          1.0     0.0000000000        0.9999999995        0.0000000000
 H3          1.0     0.8660254034       -0.4999999998        0.0000000000
 H4          1.0    -0.8660254034       -0.4999999998        0.0000000000

 Hartree-Fock Energy from Gamess run =      -1.947443409327

 The above open shell energy from Gamess is a ROHF
 energy and is different from the energy given by
 a pure VB2000 run. It is much lower. It gives a good
 starting point for the VB run and gives the same VB
 energy as a pure VB2000 run.

 Basis set size =    4

                    PARAMETER LIMIT VALUES
 Max. no. of atoms                    MAXCEN =   200
 Max. no. of basis functions          MAXBFN =   726
 Max. no. of shells                   MAXSHL =   500
 Max. no. of total primitives         MAXEXP =  1000
 Max. no. of primitives per orbital   MAXPRM =    15
 Max. no. of atoms * no. of orbitals  MAXNAB = 72600
 Increase max basis set size by       NEXTRA =    20
 Max. size for Rumer data             MAXST1 = 33334
 Max. no. of orbitals in group        MAXNOB =   200
 Max. no. of CUBE orbitals            MAXCUB =   100
 Max. no. of groups                   MAXGRP =    99

 BASIS IN $BASIS IS STO      WITH IGAUSS = 3

 VBO LIB IS: /home/brian/qchem/gamess/vb2000/VBOLIB/VBOLIBSTO-nG                             

 Molecular orbitals by HF method
 ===============================================================================
 MO#                       1         2         3         4
 E(a.u.)              -0.434    -0.032    -0.032     0.617
 -------------------------------------------------------------------------------

   1  1  H     s    -0.51302   0.00000   0.00000  -1.38571
   2  2  H     s    -0.27685  -0.00001   0.90288   0.67585
   3  3  H     s    -0.27685   0.78192  -0.45143   0.67585
   4  4  H     s    -0.27685  -0.78191  -0.45145   0.67585


 Localized molecular orbitals and the bond labels
 ===============================================================================
 LMO#                      1         2         3
 E(a.u.)              -0.166    -0.166    -0.166
 Bond Label           3-1(1)    2-1(1)    4-1(1)
 -------------------------------------------------------------------------------

   1  1  H     s     0.29619   0.29619  -0.29619
   2  2  H     s    -0.20876   0.89704   0.20876
   3  3  H     s     0.89704  -0.20876   0.20876
   4  4  H     s    -0.20876  -0.20876  -0.89704


 Mulliken population of localized molecular orbitals
 ===============================================================================
 LMO#                      1         2         3
 E(a.u.)              -0.166    -0.166    -0.166
 Bond Label           3-1(1)    2-1(1)    4-1(1)
 -------------------------------------------------------------------------------

   1         H       0.31649   0.31649   0.31649
   2         H      -0.02659   1.73670  -0.02659
   3         H       1.73670  -0.02659  -0.02659
   4         H      -0.02659  -0.02659   1.73670

 WARNING: MELEK != MELE(K)

 PARTITIONING OF LMOs INTO GROUPS ($LMOGRP)
 =======================================================================
 LMO#     1  2  3
 Group#   1  1  1
 Split    0  0  1




 Initial guess of orbitals
 ===============================================================================
 ORBITAL#                  1         2         3         4
 Bond Label          2->1(1)   1->2(1)   3->4(1)   4->3(1)
 -------------------------------------------------------------------------------

   1  1  H     s    -0.00000   1.00000  -0.00000  -0.00000
   2  2  H     s     1.00000  -0.00000  -0.00000  -0.00000
   3  3  H     s    -0.00000  -0.00000   1.00000  -0.00000
   4  4  H     s    -0.00000  -0.00000  -0.00000   1.00000


      GENERAL CONTROLS ($GENCTL)
 ====================================
 Number of electron groups       =    1
 Maximum macro-iterations        =   12
 Energy threshold           = 10**(- 6)
 Restart calculation(0/1/2)      =    0
 Group#                     1
 Num. of electrons          4
 Num. of spins              2
 Num. of orbitals           4
 Method#                    3

 SYMBOLIC VB STRUCTURE(S) OF GROUP  1
 STR. NO.       RUMER PATTERN  
    1           1  2   3  4
    2           1  3   2  4
    3           1  4   2  3


 MAP FILE IS: /home/brian/qchem/gamess/vb2000/MAP/MAP0402t                                    

 VB-ORBITAL OPTIMIZATION OF GROUP  1 ...
 GROUP =  1  ITER =  1 CMAX =  0.09384342691650
 GROUP =  1  ITER =  2 CMAX =  0.05420397706484
 GROUP =  1  ITER =  3 CMAX =  0.03078702878730
 GROUP =  1  ITER =  4 CMAX =  0.01095693783112
 GROUP =  1  ITER =  5 CMAX =  0.00141660723981
 GROUP =  1  ITER =  6 CMAX =  0.00024023155575
 GROUP =  1  ITER =  7 CMAX =  0.00004804459902

 ENERGY AND DIFF OF MACROITER    1 =     -1.98199012     -1.98199012

 VB-ORBITAL OPTIMIZATION OF GROUP  1 ...
 GROUP =  1  ITER =  1 CMAX =  0.00000738339846

 ENERGY AND DIFF OF MACROITER    2 =     -1.98199012     -0.00000000

 VB-ORBITAL OPTIMIZATION OF GROUP  1 ...
 GROUP =  1  ITER =  1 CMAX =  0.00000330629546


 OVERLAP MATRIX OF VB ORBITALS FOR GROUP   1

        1      2      3      4
 ===============================
   1 1.0000
   2 0.6362 1.0000
   3 0.2030 0.6362 1.0000
   4 0.2030 0.6362 0.2030 1.0000

 Normalized structure coefficients
  1.0593  0.2017 -0.2017

 ====Mulliken Weight====
  1.0000  0.0000  0.0000

 ====Lowdin   Weight====
  0.9999  0.0000  0.0000

 ====Hiberty  Weight====
  0.9324  0.0338  0.0338


 SPIN DENSITY ON ATOMS
 ---------------------
 ATOM      DENSITY

    1     -0.26458
    2      0.75486
    3      0.75486
    4      0.75486

 ---------------------


 ENERGY AND DIFF OF MACROITER    3 =     -1.98199012     -0.00000000


 MULLIKEN CHARGES ON ATOMS
 -------------------------
  ATOM             CHARGE 

    1             0.03860
    2            -0.01287
    3            -0.01287
    4            -0.01287

 -------------------------


 ORBITALS OF EACH ELECTRON GROUP IN AO BASIS: ORBITAL(GROUP)
 ===========================================================================
    Orbital#             1         2         3         4
      Group#             1         1         1         1
 ---------------------------------------------------------------------------
  AO# LABELS
   1  1  H     s   0.17022   0.76871   0.17022   0.17022
   2  2  H     s   0.92975   0.14240  -0.05747  -0.05747
   3  3  H     s  -0.05747   0.14240   0.92975  -0.05747
   4  4  H     s  -0.05747   0.14240  -0.05747   0.92975


 CALCULATION OF POSITION AND EXTENT OF VB ORBITALS

 DEFAULT CENTROIDS AND EXTENTS.

 MOLECULAR GEOMETRY ABOUT CENTER OF MASS

  Atom#   ATOMIC NO.     X        Y        Z
    1         1        0.0000   0.0000   0.0000
    2         1        0.0000   1.0000   0.0000
    3         1        0.8660  -0.5000   0.0000
    4         1       -0.8660  -0.5000   0.0000

 CENTROIDS OF CHARGE FOR EACH VB GROUP & DISTANCES FROM 4 ATOMS

                                                  DISTANCES FROM ATOMS
 Orbital#   Group#       X        Y        Z        1        2        3        4
    1         1        0.0000   0.9342   0.0000   0.9342   0.0658   1.6754   1.6754
    2         1        0.0000   0.0000   0.0000   0.0000   1.0000   1.0000   1.0000
    3         1        0.8091  -0.4671   0.0000   0.9342   1.6754   0.0658   1.6754
    4         1       -0.8091  -0.4671   0.0000   0.9342   1.6754   1.6754   0.0658

 EXTENT OF ORBITAL MEASURED BY (<R**2>)

 Orbital#   Group#     <X**2>   <Y**2>   <Z**2>   <R**2> Sqrt<R**2>

    1         1        0.1764   0.2169   0.1843   0.5777   0.7600
    2         1        0.2811   0.2811   0.1977   0.7600   0.8718
    3         1        0.2068   0.1866   0.1843   0.5777   0.7600
    4         1        0.2068   0.1866   0.1843   0.5777   0.7600

 WORDS OF DYNAMIC MEMORY USED IN VB2000 CODE ONLY:        7197
 NOTE THAT THIS IS IN ADDITION TO MEMORY USED BY GAMESS
 PRINTED NEAR END OF OUTPUT. ADD THE TWO AMOUNTS TO GIVE
 THE TOTAL MEMORY USED BY THE JOB

 STATISTICS OF CPU TIMES (SECONDS)
 CPU TIME FOR INITIALIZATION        0.000
 CPU TIME FOR MACROITERATION        0.020
 TOTAL CPU TIME                     0.020

 STEP CPU TIME =     0.08 TOTAL CPU TIME =        0.1 (    0.0 MIN)
 TOTAL WALL CLOCK TIME=        0.1 SECONDS, CPU UTILIZATION IS  83.33%

 **************************************************************
 *                                                            *
 *                  ENDING GAMESS(US) VB2000                  *
 *                                                            *
 *  Properties for individual molecular orbitals are correct  *
 *   only for VB modified orbitals in a Hartree-Fock group.   *
 *                                                            *
 **************************************************************

     ----------------------------------
     PROPERTIES FOR THE VB WAVEFUNCTION
     ----------------------------------

          -----------------
          ENERGY COMPONENTS
          -----------------

         WAVEFUNCTION NORMALIZATION =       1.0000000000

                ONE ELECTRON ENERGY =      -6.8654892174
                TWO ELECTRON ENERGY =       2.3794054692
           NUCLEAR REPULSION ENERGY =       2.5040936296
                                      ------------------
                       TOTAL ENERGY =      -1.9819901186

 ELECTRON-ELECTRON POTENTIAL ENERGY =       2.3794054692
  NUCLEUS-ELECTRON POTENTIAL ENERGY =      -9.7241384599
   NUCLEUS-NUCLEUS POTENTIAL ENERGY =       2.5040936296
                                      ------------------
             TOTAL POTENTIAL ENERGY =      -4.8406393611
               TOTAL KINETIC ENERGY =       2.8586492424
                 VIRIAL RATIO (V/T) =       1.6933309933

          ---------------------------------------
          MULLIKEN AND LOWDIN POPULATION ANALYSES
          ---------------------------------------

     ATOMIC MULLIKEN POPULATION IN EACH MOLECULAR ORBITAL

                      1          2          3

                  2.000000   1.000000   1.000000

    1             0.949461   0.000000   0.000000
    2             0.350180   0.000000   0.666667
    3             0.350180   0.500010   0.166657
    4             0.350180   0.499990   0.166676

     ATOMIC SPIN POPULATION (ALPHA MINUS BETA)
       ATOM         MULL.POP.                    LOW.POP.
    1 H1           -0.264580                    -0.172564
    2 H2            0.754860                     0.724188
    3 H3            0.754860                     0.724188
    4 H4            0.754860                     0.724188

               ----- POPULATIONS IN EACH AO -----
                             MULLIKEN      LOWDIN
              1  H  1  S      0.96140     0.90854
              2  H  2  S      1.01287     1.03049
              3  H  3  S      1.01287     1.03049
              4  H  4  S      1.01287     1.03049

          ----- MULLIKEN ATOMIC OVERLAP POPULATIONS -----
          (OFF-DIAGONAL ELEMENTS NEED TO BE MULTIPLIED BY 2)

             1           2           3           4

    1    0.5987656
    2    0.1208779   0.9803368
    3    0.1208779  -0.0441739   0.9803368
    4    0.1208779  -0.0441739  -0.0441739   0.9803368

          TOTAL MULLIKEN AND LOWDIN ATOMIC POPULATIONS
       ATOM         MULL.POP.    CHARGE          LOW.POP.     CHARGE
    1 H1            0.961399    0.038601         0.908539    0.091461
    2 H2            1.012867   -0.012867         1.030487   -0.030487
    3 H3            1.012867   -0.012867         1.030487   -0.030487
    4 H4            1.012867   -0.012867         1.030487   -0.030487

          -------------------------------
          BOND ORDER AND VALENCE ANALYSIS     BOND ORDER THRESHOLD=0.050
          -------------------------------

                   BOND                       BOND                       BOND
  ATOM PAIR DIST  ORDER      ATOM PAIR DIST  ORDER      ATOM PAIR DIST  ORDER
    1   2  1.000  0.294        1   3  1.000  0.294        1   4  1.000  0.294
    2   3  1.732  0.052        2   4  1.732  0.052        3   4  1.732  0.052

                       TOTAL       BONDED        FREE
      ATOM            VALENCE     VALENCE     VALENCE
    1 H1                0.999       0.881       0.117
    2 H2                1.000       0.398       0.602
    3 H3                1.000       0.398       0.602
    4 H4                1.000       0.398       0.602

          -----------------------------------------
          ATOMIC SPIN DENSITY AT THE NUCLEUS (A.U.)
          -----------------------------------------
                            SPIN DENS    ALPHA DENS     BETA DENS
    1  H1           1.0    -0.0943915       0.10930       0.20369
    2  H2           1.0     0.3335356       0.36968       0.03615
    3  H3           1.0     0.3335356       0.36968       0.03615
    4  H4           1.0     0.3335356       0.36968       0.03615

          ---------------------
          ELECTROSTATIC MOMENTS
          ---------------------

 POINT   1           X           Y           Z (BOHR)    CHARGE
                 0.000000   -0.000000    0.000000        0.00 (A.U.)
         DX          DY          DZ         /D/  (DEBYE)
    -0.000000   -0.000000    0.000000    0.000000
 ...... END OF PROPERTY EVALUATION ......
 STEP CPU TIME =     0.01 TOTAL CPU TIME =        0.1 (    0.0 MIN)
 TOTAL WALL CLOCK TIME=        0.1 SECONDS, CPU UTILIZATION IS  91.67%
               580000  WORDS OF DYNAMIC MEMORY USED
 EXECUTION OF GAMESS TERMINATED NORMALLY Mon Oct 14 07:29:57 2013
 DDI: 263624 bytes (0.3 MB / 0 MWords) used by master data server.

 ----------------------------------------
 CPU timing information for all processes
 ========================================
 0: 0.100 + 0.16 = 0.116
 ----------------------------------------
 ddikick.x: exited gracefully.
unset echo
----- accounting info -----
Files used on the master node titch-64 were:
-rw-r--r-- 1 brian brian    1176 Oct 14 07:29 /scr/brian/exam-vb22.F05
-rw-rw-r-- 1 brian brian  180016 Oct 14 07:29 /scr/brian/exam-vb22.F08
-rw-rw-r-- 1 brian brian 1799600 Oct 14 07:29 /scr/brian/exam-vb22.F10
-rw-rw-r-- 1 brian brian      88 Oct 14 07:29 /scr/brian/exam-vb22.TEMP02
-rw-rw-r-- 1 brian brian      88 Oct 14 07:29 /scr/brian/exam-vb22.TEMP03
-rw-rw-r-- 1 brian brian     448 Oct 14 07:29 /scr/brian/exam-vb22.TEMP04
-rw-rw-r-- 1 brian brian    1620 Oct 14 07:29 /scr/brian/exam-vb22.V80
-rw-rw-r-- 1 brian brian       0 Oct 14 07:29 /scr/brian/exam-vb22.V82
-rw-rw-r-- 1 brian brian       0 Oct 14 07:29 /scr/brian/exam-vb22.V83
-rw-rw-r-- 1 brian brian     352 Oct 14 07:29 /scr/brian/exam-vb22.V84
-rw-rw-r-- 1 brian brian    1064 Oct 14 07:29 /scr/brian/exam-vb22.V85
-rw-rw-r-- 1 brian brian  196592 Oct 14 07:29 /scr/brian/exam-vb22.V86
-rw-rw-r-- 1 brian brian  196592 Oct 14 07:29 /scr/brian/exam-vb22.V87
-rw-rw-r-- 1 brian brian     968 Oct 14 07:29 /scr/brian/exam-vb22.V88
-rw-rw-r-- 1 brian brian       0 Oct 14 07:29 /scr/brian/exam-vb22.V89
ls: No match.
ls: No match.
ls: No match.
Mon Oct 14 07:30:00 EST 2013
0.084u 0.008s 0:03.27 2.4%	0+0k 8+16io 0pf+0w
