----- GAMESS execution script 'rungms' -----
This job is running on host titch-64
under operating system Linux at Mon Oct 14 07:27:37 EST 2013
Available scratch disk space (Kbyte units) at beginning of the job is
Filesystem     1K-blocks      Used Available Use% Mounted on
/dev/sda1      945022356 138262416 758755588  16% /
GAMESS temporary binary files will be written to /scr/brian
GAMESS supplementary output files will be written to /home/brian/scr
Copying input file exam-vb07.inp to your run's scratch directory...
cp tests/exam-vb07.inp /scr/brian/exam-vb07.F05
unset echo
/home/brian/qchem/gamess/ddikick.x /home/brian/qchem/gamess/gamess.01.x exam-vb07 -ddi 1 1 titch-64 -scr /scr/brian

 Distributed Data Interface kickoff program.
 Initiating 1 compute processes on 1 nodes to run the following command:
 /home/brian/qchem/gamess/gamess.01.x exam-vb07 

          ******************************************************
          *         GAMESS VERSION =  1 MAY 2013 (R1)          *
          *             FROM IOWA STATE UNIVERSITY             *
          * M.W.SCHMIDT, K.K.BALDRIDGE, J.A.BOATZ, S.T.ELBERT, *
          *   M.S.GORDON, J.H.JENSEN, S.KOSEKI, N.MATSUNAGA,   *
          *          K.A.NGUYEN, S.J.SU, T.L.WINDUS,           *
          *       TOGETHER WITH M.DUPUIS, J.A.MONTGOMERY       *
          *         J.COMPUT.CHEM.  14, 1347-1363(1993)        *
          **************** 64 BIT LINUX VERSION ****************

  SINCE 1993, STUDENTS AND POSTDOCS WORKING AT IOWA STATE UNIVERSITY
  AND ALSO IN THEIR VARIOUS JOBS AFTER LEAVING ISU HAVE MADE IMPORTANT
  CONTRIBUTIONS TO THE CODE:
     IVANA ADAMOVIC, CHRISTINE AIKENS, YURI ALEXEEV, POOJA ARORA,
     ANDREY ASADCHEV, ROB BELL, PRADIPTA BANDYOPADHYAY, JONATHAN BENTZ,
     BRETT BODE, GALINA CHABAN, WEI CHEN, CHEOL HO CHOI, PAUL DAY,
     ALBERT DEFUSCO, TIM DUDLEY, DMITRI FEDOROV, GRAHAM FLETCHER,
     MARK FREITAG, KURT GLAESEMANN, DAN KEMP, GRANT MERRILL,
     NORIYUKI MINEZAWA, JONATHAN MULLIN, TAKESHI NAGATA,
     SEAN NEDD, HEATHER NETZLOFF, BOSILJKA NJEGIC, RYAN OLSON, MIKE PAK,
     JIM SHOEMAKER, LYUDMILA SLIPCHENKO, SAROM SOK, JIE SONG,
     TETSUYA TAKETSUGU, SIMON WEBB, SOOHAENG YOO, FEDERICO ZAHARIEV

  ADDITIONAL CODE HAS BEEN PROVIDED BY COLLABORATORS IN OTHER GROUPS:
     IOWA STATE UNIVERSITY:
          JOE IVANIC, LAIMUTIS BYTAUTAS, KLAUS RUEDENBERG
     UNIVERSITY OF TOKYO: KIMIHIKO HIRAO, TAKAHITO NAKAJIMA,
          TAKAO TSUNEDA, MUNEAKI KAMIYA, SUSUMU YANAGISAWA,
          KIYOSHI YAGI, MAHITO CHIBA, SEIKEN TOKURA, NAOAKI KAWAKAMI
     UNIVERSITY OF AARHUS: FRANK JENSEN
     UNIVERSITY OF IOWA: VISVALDAS KAIRYS, HUI LI
     NATIONAL INST. OF STANDARDS AND TECHNOLOGY: WALT STEVENS, DAVID GARMER
     UNIVERSITY OF PISA: BENEDETTA MENNUCCI, JACOPO TOMASI
     UNIVERSITY OF MEMPHIS: HENRY KURTZ, PRAKASHAN KORAMBATH
     UNIVERSITY OF ALBERTA: TOBY ZENG, MARIUSZ KLOBUKOWSKI
     UNIVERSITY OF NEW ENGLAND: MARK SPACKMAN
     MIE UNIVERSITY: HIROAKI UMEDA
     MICHIGAN STATE UNIVERSITY:
          KAROL KOWALSKI, MARTA WLOCH, JEFFREY GOUR, JESSE LUTZ,
          WEI LI, PIOTR PIECUCH
     UNIVERSITY OF SILESIA: MONIKA MUSIAL, STANISLAW KUCHARSKI
     FACULTES UNIVERSITAIRES NOTRE-DAME DE LA PAIX:
          OLIVIER QUINET, BENOIT CHAMPAGNE
     UNIVERSITY OF CALIFORNIA - SANTA BARBARA: BERNARD KIRTMAN
     INSTITUTE FOR MOLECULAR SCIENCE:
          KAZUYA ISHIMURA, MICHIO KATOUDA, AND SHIGERU NAGASE
     UNIVERSITY OF NOTRE DAME: DAN CHIPMAN
     KYUSHU UNIVERSITY:
          HARUYUKI NAKANO,
          FENG LONG GU, JACEK KORCHOWIEC, MARCIN MAKOWSKI, AND YURIKO AOKI,
          HIROTOSHI MORI AND EISAKU MIYOSHI
     PENNSYLVANIA STATE UNIVERSITY:
          TZVETELIN IORDANOV, CHET SWALINA, JONATHAN SKONE,
          SHARON HAMMES-SCHIFFER
     WASEDA UNIVERSITY:
          MASATO KOBAYASHI, TOMOKO AKAMA, TSUGUKI TOUMA,
          TAKESHI YOSHIKAWA, YASUHIRO IKABATA, HIROMI NAKAI
     NANJING UNIVERSITY: SHUHUA LI
     UNIVERSITY OF NEBRASKA:
          PEIFENG SU, DEJUN SI, NANDUN THELLAMUREGE, YALI WANG, HUI LI
     UNIVERSITY OF ZURICH:
          ROBERTO PEVERATI, KIM BALDRIDGE
     N. COPERNICUS UNIVERSITY AND JACKSON STATE UNIVERSITY:
          MARIA BARYSZ

 EXECUTION OF GAMESS BEGUN Mon Oct 14 07:27:37 2013

            ECHO OF THE FIRST FEW INPUT CARDS -
 INPUT CARD>! GAMESS/VB2000 Test 7.                                                         
 INPUT CARD>! This run illustrates optimising the geometry using the Gamess                 
 INPUT CARD>! TRUDGE facility. Note the compulsory use of COORD=HINT - a real               
 INPUT CARD>! pain. The VB dipole is printed at the first step only and the                 
 INPUT CARD>! molecular orbitals are not modified at any point for MO properties.           
 INPUT CARD>! If PRINTALL is on the command line, its effect is cancelled after             
 INPUT CARD>! the first VB step. The final geometry is length = 0.968 (note that            
 INPUT CARD>! with C1 symmetry, the two bonds are very slightly different) and              
 INPUT CARD>! the angle is 102.7                                                            
 INPUT CARD>!                                                                               
 INPUT CARD>! The very final VB energy is:                                                  
 INPUT CARD>!                                                                               
 INPUT CARD>! TRUDGE ENERGY VALUE AT NSTEP=  35 IS      -76.0690435928                      
 INPUT CARD>!                                                                               
 INPUT CARD> $CONTRL SCFTYP=RHF VBTYP=VB2000 COORD=HINT                                     
 INPUT CARD>  ISPHER=1 RUNTYP=TRUDGE $END                                                   
 INPUT CARD>! ISPHER has to be set to 1 since 2010 version, but                             
 INPUT CARD>! cartesians are still used for the VB part.                                    
 INPUT CARD> $SYSTEM TIMLIM=20 MEMORY=2000000 $END                                          
 INPUT CARD> $GUESS  GUESS=HUCKEL $END                                                      
 INPUT CARD> $BASIS GBASIS=CCD $END                                                         
 INPUT CARD> $TRUDGE OPTMIZ=GEOMETRY NPAR=3                                                 
 INPUT CARD>   IEX(1)=21,31,32 $END                                                         
 INPUT CARD>! Sets 3 variables to optimise - initially 1.0, 1.0 and 100.0                   
 INPUT CARD> $TRURST TOLF=0.0001 TOLR=0.001 FNOISE=0.00001 $END                             
 INPUT CARD>! Sets slightly tighter criteria than default.                                  
 INPUT CARD> $DATA                                                                          
 INPUT CARD>Water cc-pVDZ VB2000 Test                                                       
 INPUT CARD>C1                                                                              
 INPUT CARD>O  8.0  LC 0.00 0.00  0.00 - O K                                                
 INPUT CARD>H  1.0  PCC 1.00 0.0 0.00 + O K I                                               
 INPUT CARD>H  1.0  PCC 1.00 100.0 0.00 + O K I                                             
 INPUT CARD> $END                                                                           
 INPUT CARD> $VB2000                                                                        
 INPUT CARD>#! VB(4)/cc-pVDZ PRINTALL                                                       
 INPUT CARD>                                                                                
 INPUT CARD>Water                                                                           
 INPUT CARD>                                                                                
 INPUT CARD>0 1                                                                             
 INPUT CARD>8    0.0000000000    0.0000000000   0.0000000000                                
 INPUT CARD>1    0.0000000000   -0.7572153434   0.5865355237                                
 INPUT CARD>1    0.0000000000    0.7572153434   0.5865355237                                
 INPUT CARD>                                                                                
 INPUT CARD> $END                                                                           
 INPUT CARD>                                                                                
    2000000 WORDS OF MEMORY AVAILABLE

     BASIS OPTIONS
     -------------
     GBASIS=CCD          IGAUSS=       0      POLAR=NONE    
     NDFUNC=       0     NFFUNC=       0     DIFFSP=       F
     NPFUNC=       0      DIFFS=       F     BASNAM=        


     RUN TITLE
     ---------
 Water cc-pVDZ VB2000 Test                                                       

 THE POINT GROUP OF THE MOLECULE IS C1      
 THE ORDER OF THE PRINCIPAL AXIS IS     0

 ATOM      ATOMIC                      COORDINATES (BOHR)
           CHARGE         X                   Y                   Z
 O           8.0     0.0000000000        0.0000000000        0.0000000000
 H           1.0     0.0000000000        0.0000000000        1.8897259877
 H           1.0     1.8610168038        0.0000000000       -0.3281474741

          INTERNUCLEAR DISTANCES (ANGS.)
          ------------------------------

                1 O          2 H          3 H     

   1 O       0.0000000    1.0000000 *  1.0000000 *
   2 H       1.0000000 *  0.0000000    1.5320889 *
   3 H       1.0000000 *  1.5320889 *  0.0000000  

  * ... LESS THAN  3.000


     ATOMIC BASIS SET
     ----------------
 THE CONTRACTED PRIMITIVE FUNCTIONS HAVE BEEN UNNORMALIZED
 THE CONTRACTED BASIS FUNCTIONS ARE NOW NORMALIZED TO UNITY

  SHELL TYPE  PRIMITIVE        EXPONENT          CONTRACTION COEFFICIENT(S)

 O         

      1   S       1         11720.0000000    0.000709645947
      1   S       2          1759.0000000    0.005467272292
      1   S       3           400.8000000    0.027823118610
      1   S       4           113.7000000    0.104747739711
      1   S       5            37.0300000    0.282920846357
      1   S       6            13.2700000    0.448495238698
      1   S       7             5.0250000    0.270816885213
      1   S       8             1.0130000    0.015450291607

      2   S       9         11720.0000000   -0.000314443412
      2   S      10          1759.0000000   -0.002482137681
      2   S      11           400.8000000   -0.012316355382
      2   S      12           113.7000000   -0.050538917344
      2   S      13            37.0300000   -0.139384903316
      2   S      14            13.2700000   -0.325077494818
      2   S      15             5.0250000   -0.229848307588
      2   S      16             1.0130000    1.095379346788

      3   S      17             0.3023000    1.000000000000

      4   P      18            17.7000000    0.062679166282
      4   P      19             3.8540000    0.333536565879
      4   P      20             1.0460000    0.741239641640

      5   P      21             0.2753000    1.000000000000

      6   D      22             1.1850000    1.000000000000

 H         

      7   S      23            13.0100000    0.033498726390
      7   S      24             1.9620000    0.234800801174
      7   S      25             0.4446000    0.813682957883

      8   S      26             0.1220000    1.000000000000

      9   P      27             0.7270000    1.000000000000

 H         

     10   S      28            13.0100000    0.033498726390
     10   S      29             1.9620000    0.234800801174
     10   S      30             0.4446000    0.813682957883

     11   S      31             0.1220000    1.000000000000

     12   P      32             0.7270000    1.000000000000

 TOTAL NUMBER OF BASIS SET SHELLS             =   12
 NUMBER OF CARTESIAN GAUSSIAN BASIS FUNCTIONS =   25
 NOTE: THIS RUN WILL RESTRICT THE MO VARIATION SPACE TO SPHERICAL HARMONICS.
 THE NUMBER OF ORBITALS KEPT IN THE VARIATIONAL SPACE WILL BE PRINTED LATER.
 NUMBER OF ELECTRONS                          =   10
 CHARGE OF MOLECULE                           =    0
 SPIN MULTIPLICITY                            =    1
 NUMBER OF OCCUPIED ORBITALS (ALPHA)          =    5
 NUMBER OF OCCUPIED ORBITALS (BETA )          =    5
 TOTAL NUMBER OF ATOMS                        =    3
 THE NUCLEAR REPULSION ENERGY IS        8.8122319071

     $CONTRL OPTIONS
     ---------------
 SCFTYP=RHF          RUNTYP=TRUDGE       EXETYP=RUN     
 MPLEVL=       0     CITYP =NONE         CCTYP =NONE         VBTYP =VB2000  
 DFTTYP=NONE         TDDFT =NONE    
 MULT  =       1     ICHARG=       0     NZVAR =       0     COORD =HINT    
 PP    =NONE         RELWFN=NONE         LOCAL =NONE         NUMGRD=       F
 ISPHER=       1     NOSYM =       0     MAXIT =      30     UNITS =ANGS    
 PLTORB=       F     MOLPLT=       F     AIMPAC=       F     FRIEND=        
 NPRINT=       7     IREST =       0     GEOM  =INPUT   
 NORMF =       0     NORMP =       0     ITOL  =      20     ICUT  =       9
 INTTYP=BEST         GRDTYP=BEST         QMTTOL= 1.0E-06

     $SYSTEM OPTIONS
     ---------------
  REPLICATED MEMORY=     2000000 WORDS (ON EVERY NODE).
 DISTRIBUTED MEMDDI=           0 MILLION WORDS IN AGGREGATE,
 MEMDDI DISTRIBUTED OVER   1 PROCESSORS IS           0 WORDS/PROCESSOR.
 TOTAL MEMORY REQUESTED ON EACH PROCESSOR=     2000000 WORDS.
 TIMLIM=          20.00 MINUTES, OR       0.0 DAYS.
 PARALL= F  BALTYP=  DLB     KDIAG=    0  COREFL= F
 MXSEQ2=     300 MXSEQ3=     150

          ----------------
          PROPERTIES INPUT
          ----------------

     MOMENTS            FIELD           POTENTIAL          DENSITY
 IEMOM =       1   IEFLD =       0   IEPOT =       0   IEDEN =       0
 WHERE =COMASS     WHERE =NUCLEI     WHERE =NUCLEI     WHERE =NUCLEI  
 OUTPUT=BOTH       OUTPUT=BOTH       OUTPUT=BOTH       OUTPUT=BOTH    
 IEMINT=       0   IEFINT=       0                     IEDINT=       0
                                                       MORB  =       0
          EXTRAPOLATION IN EFFECT
          SOSCF IN EFFECT
 ORBITAL PRINTING OPTION: NPREO=     1    25     2     1

     -------------------------------
     INTEGRAL TRANSFORMATION OPTIONS
     -------------------------------
     NWORD  =            0
     CUTOFF = 1.0E-09     MPTRAN =       0
     DIRTRF =       F     AOINTS =DUP     

          ----------------------
          INTEGRAL INPUT OPTIONS
          ----------------------
 NOPK  =       1 NORDER=       0 SCHWRZ=       F

     ------------------------------------------
     THE POINT GROUP IS C1 , NAXIS= 0, ORDER= 1
     ------------------------------------------

 -- VARIATIONAL SPACE WILL BE RESTRICTED TO PURE SPHERICAL HARMONICS ONLY --
 AFTER EXCLUDING CONTAMINANT COMBINATIONS FROM THE CARTESIAN GAUSSIAN BASIS
 SET, THE NUMBER OF SPHERICAL HARMONICS KEPT IN THE VARIATION SPACE IS   24

     DIMENSIONS OF THE SYMMETRY SUBSPACES ARE
 A   =   24

 ..... DONE SETTING UP THE RUN .....
 STEP CPU TIME =     0.00 TOTAL CPU TIME =        0.0 (    0.0 MIN)
 TOTAL WALL CLOCK TIME=        0.0 SECONDS, CPU UTILIZATION IS   0.00%

     --------------------------------
     NON-GRADIENT ENERGY MINIMIZATION
     --------------------------------
 $TRURST KSTART=-1  JSTART= 0  TOLF=  0.000100 TOLR=  0.001000
         FNOISE=  0.000010  FNOT=   0.000000000
 $END
 --------------------------------------------------------------
 INTERNAL COORDINATES (ANGSTROMS/DEGREE)
  I   BOND     ALPHA      BETA    SIGN ICONX   IATCON    INATOM
  1 0.0000000   0.00000   0.00000 -1.0     1200120042003      1
  2 1.0000000   0.00000   0.00000  1.0     2200120042002      2
  3 1.0000000 100.00000   0.00000  1.0     2200120042002      3
 --------------------------------------------------------------
 ----- TRUDGE RESTART DATA AT NSTEP   0 --------
 $TRUDGE OPTMIZ=GEOMETRY  NPAR= 3
         IEX(1)=   21,   31,   32,
         P(1)=      1.000000,      1.000000,    100.000000,
 $END

          ********************
          1 ELECTRON INTEGRALS
          ********************
 ...... END OF ONE-ELECTRON INTEGRALS ......
 STEP CPU TIME =     0.00 TOTAL CPU TIME =        0.0 (    0.0 MIN)
 TOTAL WALL CLOCK TIME=        0.0 SECONDS, CPU UTILIZATION IS   0.00%

          -------------
          GUESS OPTIONS
          -------------
          GUESS =HUCKEL            NORB  =       0          NORDER=       0
          MIX   =       F          PRTMO =       F          PUNMO =       F
          TOLZ  = 1.0E-08          TOLE  = 1.0E-05
          SYMDEN=       F          PURIFY=       F

 INITIAL GUESS ORBITALS GENERATED BY HUCKEL   ROUTINE.
 HUCKEL GUESS REQUIRES      6979 WORDS.

 STATISTICS FOR GENERATION OF SYMMETRY ORBITAL -Q- MATRIX
 NUMBER OF CARTESIAN ATOMIC ORBITALS=         25
 NUMBER OF SPHERICAL CONTAMINANTS DROPPED=     1
 NUMBER OF LINEARLY DEPENDENT MOS DROPPED=     0
 TOTAL NUMBER OF MOS IN VARIATION SPACE=      24

 SYMMETRIES FOR INITIAL GUESS ORBITALS FOLLOW.   BOTH SET(S).
     5 ORBITALS ARE OCCUPIED (    1 CORE ORBITALS).
     2=A        3=A        4=A        5=A        6=A        7=A        8=A   
     9=A       10=A       11=A       12=A       13=A       14=A       15=A   
 ...... END OF INITIAL ORBITAL SELECTION ......
 STEP CPU TIME =     0.00 TOTAL CPU TIME =        0.0 (    0.0 MIN)
 TOTAL WALL CLOCK TIME=        0.0 SECONDS, CPU UTILIZATION IS   0.00%

                    ----------------------
                    AO INTEGRAL TECHNOLOGY
                    ----------------------
     S,P,L SHELL ROTATED AXIS INTEGRALS, REPROGRAMMED BY
        KAZUYA ISHIMURA (IMS) AND JOSE SIERRA (SYNSTAR).
     S,P,D,L SHELL ROTATED AXIS INTEGRALS PROGRAMMED BY
        KAZUYA ISHIMURA (INSTITUTE FOR MOLECULAR SCIENCE).
     S,P,D,F,G SHELL TO TOTAL QUARTET ANGULAR MOMENTUM SUM 5,
        ERIC PROGRAM BY GRAHAM FLETCHER (ELORET AND NASA ADVANCED
        SUPERCOMPUTING DIVISION, AMES RESEARCH CENTER).
     S,P,D,F,G,L SHELL GENERAL RYS QUADRATURE PROGRAMMED BY
        MICHEL DUPUIS (PACIFIC NORTHWEST NATIONAL LABORATORY).

          --------------------
          2 ELECTRON INTEGRALS
          --------------------

 THE -PK- OPTION IS OFF, THE INTEGRALS ARE NOT IN SUPERMATRIX FORM.
 STORING   15000 INTEGRALS/RECORD ON DISK, USING 12 BYTES/INTEGRAL.
 TWO ELECTRON INTEGRAL EVALUATION REQUIRES   90474 WORDS OF MEMORY.
 II,JST,KST,LST =  1  1  1  1 NREC =         1 INTLOC =    1
 II,JST,KST,LST =  2  1  1  1 NREC =         1 INTLOC =    2
 II,JST,KST,LST =  3  1  1  1 NREC =         1 INTLOC =    7
 II,JST,KST,LST =  4  1  1  1 NREC =         1 INTLOC =   22
 II,JST,KST,LST =  5  1  1  1 NREC =         1 INTLOC =   67
 II,JST,KST,LST =  6  1  1  1 NREC =         1 INTLOC =  214
 II,JST,KST,LST =  7  1  1  1 NREC =         1 INTLOC = 1189
 II,JST,KST,LST =  8  1  1  1 NREC =         1 INTLOC = 1867
 II,JST,KST,LST =  9  1  1  1 NREC =         1 INTLOC = 2713
 II,JST,KST,LST = 10  1  1  1 NREC =         1 INTLOC = 5597
 II,JST,KST,LST = 11  1  1  1 NREC =         1 INTLOC = 8283
 II,JST,KST,LST = 12  1  1  1 NREC =         1 INTLOC =11418
 TOTAL NUMBER OF NONZERO TWO-ELECTRON INTEGRALS =               22444
          2 INTEGRAL RECORDS WERE STORED ON DISK FILE  8.
  ...... END OF TWO-ELECTRON INTEGRALS .....
 STEP CPU TIME =     0.02 TOTAL CPU TIME =        0.0 (    0.0 MIN)
 TOTAL WALL CLOCK TIME=        0.0 SECONDS, CPU UTILIZATION IS  66.67%

          --------------------------
                 RHF SCF CALCULATION
          --------------------------

     NUCLEAR ENERGY =         8.8122319071
     MAXIT =   30     NPUNCH=    2
     EXTRAP=T  DAMP=F  SHIFT=F  RSTRCT=F  DIIS=F  DEM=F  SOSCF=T
     DENSITY MATRIX CONV=  1.00E-05
     SOSCF WILL OPTIMIZE      95 ORBITAL ROTATIONS, SOGTOL=   0.250
     MEMORY REQUIRED FOR RHF ITERS=     35105 WORDS.

 ITER EX DEM     TOTAL ENERGY        E CHANGE  DENSITY CHANGE     ORB. GRAD
   1  0  0      -75.7709014184   -75.7709014184   0.169556192   0.000000000
          ---------------START SECOND ORDER SCF---------------
   2  1  0      -76.0088013891    -0.2378999707   0.043679471   0.046414969
   3  2  0      -76.0202668431    -0.0114654541   0.020320426   0.010751892
   4  3  0      -76.0212498132    -0.0009829700   0.002920414   0.002333036
   5  4  0      -76.0212783281    -0.0000285149   0.000984919   0.001155298
   6  5  0      -76.0212857701    -0.0000074420   0.000410041   0.000204350
   7  6  0      -76.0212862253    -0.0000004552   0.000050552   0.000038090
   8  7  0      -76.0212862298    -0.0000000045   0.000025952   0.000013055
   9  8  0      -76.0212862303    -0.0000000005   0.000002340   0.000001160
  10  9  0      -76.0212862303    -0.0000000000   0.000000535   0.000000304

          -----------------
          DENSITY CONVERGED
          -----------------
     TIME TO FORM FOCK OPERATORS=       0.0 SECONDS (       0.0 SEC/ITER)
     TIME TO SOLVE SCF EQUATIONS=       0.0 SECONDS (       0.0 SEC/ITER)

 FINAL RHF ENERGY IS      -76.0212862303 AFTER  10 ITERATIONS

          ------------
          EIGENVECTORS
          ------------

                      1          2          3          4          5
                  -20.5604    -1.3196    -0.6690    -0.5678    -0.4921
                     A          A          A          A          A   
    1  O  1  S    1.000818  -0.006408   0.000000   0.002506  -0.000000
    2  O  1  S    0.000928   0.447400   0.000000  -0.151924  -0.000000
    3  O  1  S   -0.002912   0.401641   0.000000  -0.346886  -0.000000
    4  O  1  X    0.001285   0.056823  -0.313331   0.410123  -0.000000
    5  O  1  Y    0.000000   0.000000   0.000000  -0.000000   0.633398
    6  O  1  Z    0.001078   0.047680   0.373413   0.344134  -0.000000
    7  O  1  X   -0.000481  -0.006054  -0.155486   0.273980  -0.000000
    8  O  1  Y    0.000000   0.000000   0.000000  -0.000000   0.496402
    9  O  1  Z   -0.000404  -0.005080   0.185301   0.229896  -0.000000
   10  O  1 XX    0.000014   0.001511  -0.022105   0.008348  -0.000000
   11  O  1 YY   -0.000031  -0.002946   0.000000  -0.012719  -0.000000
   12  O  1 ZZ    0.000017   0.001434   0.022105   0.004371  -0.000000
   13  O  1 XY    0.000000   0.000000   0.000000  -0.000000   0.013780
   14  O  1 XZ   -0.000009   0.000252   0.004501   0.013020  -0.000000
   15  O  1 YZ    0.000000   0.000000   0.000000  -0.000000   0.011563
   16  H  2  S   -0.000010   0.178295   0.316457   0.214208  -0.000000
   17  H  2  S    0.000423   0.010959   0.102175   0.049551  -0.000000
   18  H  2  X    0.000038   0.005466  -0.011277   0.024307  -0.000000
   19  H  2  Y    0.000000   0.000000   0.000000  -0.000000   0.029654
   20  H  2  Z    0.000590  -0.039070  -0.037621  -0.021923  -0.000000
   21  H  3  S   -0.000010   0.178295  -0.316457   0.214208  -0.000000
   22  H  3  S    0.000423   0.010959  -0.102175   0.049551  -0.000000
   23  H  3  X    0.000588  -0.037527   0.039008  -0.017369  -0.000000
   24  H  3  Y    0.000000   0.000000   0.000000  -0.000000   0.029654
   25  H  3  Z   -0.000065   0.012167   0.004573   0.027745  -0.000000

                      6          7          8          9         10
                    0.1773     0.2497     0.7466     0.8345     1.1702
                     A          A          A          A          A   
    1  O  1  S   -0.051003   0.000000  -0.000000  -0.081293   0.017640
    2  O  1  S    0.071507   0.000000  -0.000000  -0.275515   0.152134
    3  O  1  S    0.949306   0.000000  -0.000000   0.378527   0.599051
    4  O  1  X    0.161984  -0.191804   0.169805  -0.277346  -0.566655
    5  O  1  Y   -0.000000   0.000000  -0.000000  -0.000000  -0.000000
    6  O  1  Z    0.135921   0.228584  -0.202366  -0.232721  -0.475480
    7  O  1  X    0.279299  -0.426165   0.247667   0.018527   0.938313
    8  O  1  Y   -0.000000   0.000000  -0.000000  -0.000000  -0.000000
    9  O  1  Z    0.234360   0.507883  -0.295158   0.015546   0.787338
   10  O  1 XX    0.005984  -0.014723  -0.090926   0.038628   0.001174
   11  O  1 YY   -0.010834   0.000000  -0.000000  -0.089484   0.005573
   12  O  1 ZZ    0.004850   0.014723   0.090926   0.050856  -0.006747
   13  O  1 XY   -0.000000   0.000000  -0.000000  -0.000000  -0.000000
   14  O  1 XZ    0.003713   0.002998   0.018513  -0.040038   0.025938
   15  O  1 YZ   -0.000000   0.000000  -0.000000  -0.000000  -0.000000
   16  H  2  S   -0.063026  -0.041802   0.940230   0.799974  -0.515357
   17  H  2  S   -0.806424  -1.383505  -0.771488  -0.581218  -0.086444
   18  H  2  X    0.002707  -0.001317   0.058944  -0.110252   0.195096
   19  H  2  Y   -0.000000   0.000000  -0.000000  -0.000000  -0.000000
   20  H  2  Z    0.019362   0.021065   0.131619   0.254706   0.211724
   21  H  3  S   -0.063026   0.041802  -0.940230   0.799974  -0.515357
   22  H  3  S   -0.806424   1.383505   0.771488  -0.581218  -0.086444
   23  H  3  X    0.019538  -0.020516  -0.139854   0.231691   0.242386
   24  H  3  Y   -0.000000   0.000000  -0.000000  -0.000000  -0.000000
   25  H  3  Z   -0.000697   0.004954  -0.035193  -0.152806   0.155367

                     11         12         13         14         15
                    1.1972     1.2616     1.4093     1.4807     1.6441
                     A          A          A          A          A   
    1  O  1  S    0.000000   0.000000   0.161912   0.000000  -0.000000
    2  O  1  S    0.000000   0.000000   0.444298   0.000000  -0.000000
    3  O  1  S    0.000000   0.000000  -0.257081   0.000000  -0.000000
    4  O  1  X    0.000000   0.493754  -0.128940   0.000000  -0.000000
    5  O  1  Y   -0.964700   0.000000  -0.000000   0.000000   0.061736
    6  O  1  Z    0.000000  -0.588433  -0.108194   0.000000  -0.000000
    7  O  1  X    0.000000  -1.091207   0.640165   0.000000  -0.000000
    8  O  1  Y    0.989068   0.000000  -0.000000   0.000000  -0.658296
    9  O  1  Z    0.000000   1.300450   0.537162   0.000000  -0.000000
   10  O  1 XX    0.000000  -0.027899  -0.040238   0.000000  -0.000000
   11  O  1 YY    0.000000   0.000000   0.045150   0.000000  -0.000000
   12  O  1 ZZ    0.000000   0.027899  -0.004912   0.000000  -0.000000
   13  O  1 XY    0.000275   0.000000  -0.000000   0.088610   0.125219
   14  O  1 XZ    0.000000   0.005680  -0.115667   0.000000  -0.000000
   15  O  1 YZ    0.000231   0.000000  -0.000000  -0.105601   0.105071
   16  H  2  S    0.000000  -0.333572  -0.396058   0.000000  -0.000000
   17  H  2  S    0.000000  -0.773203   0.162331   0.000000  -0.000000
   18  H  2  X    0.000000  -0.039374  -0.628137   0.000000  -0.000000
   19  H  2  Y    0.052467   0.000000  -0.000000  -0.686100   0.751641
   20  H  2  Z    0.000000   0.340821   0.006293   0.000000  -0.000000
   21  H  3  S    0.000000   0.333572  -0.396058   0.000000  -0.000000
   22  H  3  S    0.000000   0.773203   0.162331   0.000000  -0.000000
   23  H  3  X    0.000000  -0.328806  -0.102877   0.000000  -0.000000
   24  H  3  Y    0.052467   0.000000  -0.000000   0.686100   0.751641
   25  H  3  Z    0.000000   0.097959  -0.619687   0.000000  -0.000000

                     16         17         18         19         20
                    1.8681     1.9145     2.3475     2.3954     3.2692
                     A          A          A          A          A   
    1  O  1  S   -0.752019   0.000000  -0.000000   0.185665   0.000000
    2  O  1  S   -1.658300   0.000000  -0.000000   0.549146   0.000000
    3  O  1  S    2.956120   0.000000  -0.000000   0.872179   0.000000
    4  O  1  X    0.031308  -0.015175  -0.491330   0.507092   0.000000
    5  O  1  Y    0.000000   0.000000  -0.000000   0.000000  -0.029698
    6  O  1  Z    0.026270   0.018085   0.585544   0.425501   0.000000
    7  O  1  X    0.742116  -0.521723  -0.059086   0.154147   0.000000
    8  O  1  Y    0.000000   0.000000  -0.000000   0.000000   0.288612
    9  O  1  Z    0.622709   0.621765   0.070416   0.129345   0.000000
   10  O  1 XX   -0.082279   0.026068   0.100295  -0.086627   0.000000
   11  O  1 YY    0.153370   0.000000  -0.000000   0.192069   0.000000
   12  O  1 ZZ   -0.071091  -0.026068  -0.100295  -0.105442   0.000000
   13  O  1 XY    0.000000   0.000000  -0.000000   0.000000   0.793160
   14  O  1 XZ   -0.036631  -0.005308  -0.020421   0.061608   0.000000
   15  O  1 YZ    0.000000   0.000000  -0.000000   0.000000   0.665540
   16  H  2  S   -0.776170  -0.333639  -0.206667  -0.432630   0.000000
   17  H  2  S   -0.373067  -0.084389  -0.338748  -0.179610   0.000000
   18  H  2  X   -0.183383   0.825428  -0.079420  -0.011763   0.000000
   19  H  2  Y    0.000000   0.000000  -0.000000   0.000000  -0.375270
   20  H  2  Z    0.277074   0.120394   0.880361   0.908052   0.000000
   21  H  3  S   -0.776170   0.333639   0.206667  -0.432630   0.000000
   22  H  3  S   -0.373067   0.084389   0.338748  -0.179610   0.000000
   23  H  3  X    0.241021  -0.261899  -0.853195   0.892214   0.000000
   24  H  3  Y    0.000000   0.000000  -0.000000   0.000000  -0.375270
   25  H  3  Z   -0.228710  -0.791982   0.231086  -0.169266   0.000000

                     21         22         23         24
                    3.2820     3.4625     3.7984     4.1200
                     A          A          A          A   
    1  O  1  S   -0.000000  -0.058316  -0.220907   0.000000
    2  O  1  S   -0.000000  -0.118325  -0.337737   0.000000
    3  O  1  S   -0.000000   0.222598   2.188474   0.000000
    4  O  1  X   -0.000000  -0.040865   0.254444   0.240177
    5  O  1  Y   -0.000000  -0.000000   0.000000   0.000000
    6  O  1  Z   -0.000000  -0.034290   0.213504  -0.286232
    7  O  1  X   -0.000000   0.285858   0.763134   0.675724
    8  O  1  Y   -0.000000  -0.000000   0.000000   0.000000
    9  O  1  Z   -0.000000   0.239863   0.640345  -0.805297
   10  O  1 XX   -0.000000   0.252994   0.526219   1.118786
   11  O  1 YY   -0.000000  -0.183874  -1.118714   0.000000
   12  O  1 ZZ   -0.000000  -0.069120   0.592495  -1.118786
   13  O  1 XY   -0.673315  -0.000000   0.000000   0.000000
   14  O  1 XZ   -0.000000   1.054703  -0.217010  -0.227790
   15  O  1 YZ    0.802425  -0.000000   0.000000   0.000000
   16  H  2  S   -0.000000  -0.136777  -1.137569   0.945374
   17  H  2  S   -0.000000  -0.002920  -0.189649   0.277558
   18  H  2  X   -0.000000  -0.422983  -0.056145  -0.036447
   19  H  2  Y   -0.339443  -0.000000   0.000000   0.000000
   20  H  2  Z   -0.000000  -0.016566   0.751084  -0.755851
   21  H  3  S   -0.000000  -0.136777  -1.137569  -0.945374
   22  H  3  S   -0.000000  -0.002920  -0.189649  -0.277558
   23  H  3  X   -0.000000  -0.089765   0.729924   0.750697
   24  H  3  Y    0.339443  -0.000000   0.000000   0.000000
   25  H  3  Z   -0.000000  -0.413680  -0.185716  -0.095359
 ...... END OF RHF CALCULATION ......
 STEP CPU TIME =     0.01 TOTAL CPU TIME =        0.0 (    0.0 MIN)
 TOTAL WALL CLOCK TIME=        0.0 SECONDS, CPU UTILIZATION IS  75.00%

     ----------------------------------------------------------------
     PROPERTY VALUES FOR THE RHF   SELF-CONSISTENT FIELD WAVEFUNCTION
     ----------------------------------------------------------------

          -----------------
          ENERGY COMPONENTS
          -----------------

         WAVEFUNCTION NORMALIZATION =       1.0000000000

                ONE ELECTRON ENERGY =    -122.4492358117
                TWO ELECTRON ENERGY =      37.6157176743
           NUCLEAR REPULSION ENERGY =       8.8122319071
                                      ------------------
                       TOTAL ENERGY =     -76.0212862303

 ELECTRON-ELECTRON POTENTIAL ENERGY =      37.6157176743
  NUCLEUS-ELECTRON POTENTIAL ENERGY =    -198.2918375616
   NUCLEUS-NUCLEUS POTENTIAL ENERGY =       8.8122319071
                                      ------------------
             TOTAL POTENTIAL ENERGY =    -151.8638879802
               TOTAL KINETIC ENERGY =      75.8426017499
                 VIRIAL RATIO (V/T) =       2.0023559909

  ...... PI ENERGY ANALYSIS ......

 ENERGY ANALYSIS:
            FOCK ENERGY=    -47.2177984575
          BARE H ENERGY=   -122.4492358117
     ELECTRONIC ENERGY =    -84.8335171346
         KINETIC ENERGY=     75.8426017499
          N-N REPULSION=      8.8122319071
           TOTAL ENERGY=    -76.0212852275
        SIGMA PART(1+2)=    -77.2695347444
               (K,V1,2)=     71.2696605237   -179.5751559460     31.0359606779
           PI PART(1+2)=     -7.5639823902
               (K,V1,2)=      4.5729412263    -18.7166816156      6.5797579992
  SIGMA SKELETON, ERROR=    -68.4573028373     -0.0000000000
             MIXED PART= 0.00000E+00 0.00000E+00 0.00000E+00 0.00000E+00
 ...... END OF PI ENERGY ANALYSIS ......

          ---------------------------------------
          MULLIKEN AND LOWDIN POPULATION ANALYSES
          ---------------------------------------

     ATOMIC MULLIKEN POPULATION IN EACH MOLECULAR ORBITAL

                      1          2          3          4          5

                  2.000000   2.000000   2.000000   2.000000   2.000000

    1             2.000113   1.534787   1.182900   1.664650   1.961309
    2            -0.000056   0.232606   0.408550   0.167675   0.019346
    3            -0.000056   0.232606   0.408550   0.167675   0.019346

               ----- POPULATIONS IN EACH AO -----
                             MULLIKEN      LOWDIN
              1  O  1  S      2.00160     1.90504
              2  O  1  S      0.84224     0.60387
              3  O  1  S      0.86524     0.51870
              4  O  1  X      0.83582     0.77662
              5  O  1  Y      1.13048     1.09233
              6  O  1  Z      0.81269     0.74998
              7  O  1  X      0.52279     0.63030
              8  O  1  Y      0.82978     0.80004
              9  O  1  Z      0.49146     0.60619
             10  O  1 XX      0.00642     0.19034
             11  O  1 YY      0.00365     0.18183
             12  O  1 ZZ      0.00061     0.19116
             13  O  1 XY      0.00053     0.00017
             14  O  1 XZ      0.00043     0.00050
             15  O  1 YZ      0.00000     0.00012
             16  H  2  S      0.66369     0.54454
             17  H  2  S      0.08459     0.17244
             18  H  2  X      0.01538     0.03352
             19  H  2  Y      0.01935     0.05367
             20  H  2  Z      0.04511     0.07236
             21  H  3  S      0.66369     0.54444
             22  H  3  S      0.08459     0.17243
             23  H  3  X      0.04367     0.07225
             24  H  3  Y      0.01935     0.05367
             25  H  3  Z      0.01682     0.03348

          ----- MULLIKEN ATOMIC OVERLAP POPULATIONS -----
          (OFF-DIAGONAL ELEMENTS NEED TO BE MULTIPLIED BY 2)

             1           2           3

    1    7.6489152
    2    0.3474216   0.5147766
    3    0.3474216  -0.0340773   0.5147766

          TOTAL MULLIKEN AND LOWDIN ATOMIC POPULATIONS
       ATOM         MULL.POP.    CHARGE          LOW.POP.     CHARGE
    1 O             8.343758   -0.343758         8.247207   -0.247207
    2 H             0.828121    0.171879         0.876521    0.123479
    3 H             0.828121    0.171879         0.876272    0.123728

          MULLIKEN SPHERICAL HARMONIC POPULATIONS
       ATOM           S       P       D      F      G      H      I    TOTAL
    1 O             3.71    4.62    0.01   0.00   0.00   0.00   0.00    8.34
    2 H             0.75    0.08    0.00   0.00   0.00   0.00   0.00    0.83
    3 H             0.75    0.08    0.00   0.00   0.00   0.00   0.00    0.83

          -------------------------------
          BOND ORDER AND VALENCE ANALYSIS     BOND ORDER THRESHOLD=0.050
          -------------------------------

                   BOND                       BOND                       BOND
  ATOM PAIR DIST  ORDER      ATOM PAIR DIST  ORDER      ATOM PAIR DIST  ORDER
    1   2  1.000  1.006        1   3  1.000  1.006

                       TOTAL       BONDED        FREE
      ATOM            VALENCE     VALENCE     VALENCE
    1 O                 2.012       2.012      -0.000
    2 H                 1.011       1.011       0.000
    3 H                 1.011       1.011      -0.000

          ---------------------
          ELECTROSTATIC MOMENTS
          ---------------------

 POINT   1           X           Y           Z (BOHR)    CHARGE
                 0.104138    0.000000    0.087382       -0.00 (A.U.)
         DX          DY          DZ         /D/  (DEBYE)
     1.657427    0.000000    1.390746    2.163617
 ...... END OF PROPERTY EVALUATION ......
 STEP CPU TIME =     0.01 TOTAL CPU TIME =        0.0 (    0.0 MIN)
 TOTAL WALL CLOCK TIME=        0.0 SECONDS, CPU UTILIZATION IS 100.00%

 **************************************************************
 *                                                            *
 *         ENTERING VB2000 INTERFACED INTO GAMESS(US)         *
 *                                                            *
 **************************************************************

 **************************************************************
 *                                                            *
 *                        V B 2 0 0 0                         *
 *                                                            *
 *       An ab initio Valence-Bond Program Based on the       *
 *           Generalized Product Function Method and          *
 *                   the Algebrant Algorithm                  *
 *                                                            *
 *                   Version 2.7 October 2013                 *
 *                      GAMESS(US) Version                    *
 *                     Compiler: gfortran                     *
 *                                                            *
 *         Jiabo Li*, Brian Duke** and Roy McWeeny***         *
 *                                                            *
 *        * SciNet Technologies, 9943 Fieldthorn St.,         *
 *                   San Diego, CA 92127, USA                 *
 *                                                            *
 *  ** Monash University Institute of Pharmaceutical Sciences,*
 *     381 Royal Pde, Parkville, Victoria, 3052, Australia    *
 *                                                            *
 * *** Department of Chemistry, University of Pisa,           *
 *     56100 Pisa, Italy                                      *
 *                                                            *
 *  Reference for the software:                               *
 *     Jiabo Li, Brian Duke, and Roy McWeeny, VB2000 Version  *
 *     2.7, SciNet Technologies, San Diego, CA, 2013          *
 *     URL: http://www.scinetec.com or http://www.vb2000.net  *
 *                                                            *
 *  References for the theory:                                *
 *     General:                                               *
 *     Jiabo Li, and Roy McWeeny, "VB2000: Pushing Valence    *
 *     Bond Theory to New Limits", Int. J. Quantum Chem.,     *
 *     89(2002)208-216.                                       *
 *                                                            *
 *     Spin densities:-                                       *
 *     Jiabo Li, Brian J. Duke, Thomas M. Klapoetke, and Roy  *
 *     McWeeny, Spin-Density of Spin-Free Valence Bond Wave   *
 *     Functions and Its Implementation in VB2000. J. Theor.  *
 *     Comp. Chem. 7(2008)853-867.                            *
 *                                                            *
 *     Spin coupled - n electrons in m orbitals:-             *
 *     Peter B. Karadakov, David L. Cooper, Brian J. Duke,    *
 *     and Jiabo Li, Spin-Coupled Theory for N Electrons in   *
 *     M Orbitals Active Spaces,  J. Phys. Chem. A, 116,      *
 *     7238 - 7244, 2012                                      *
 *                                                            *
 *  Copyright (C) 2000-2013 by SciNet Technologies            *
 **************************************************************

 JOB NAME IS exam-vb07                                                       

 VB2000 DIRECTORY IS: /home/brian/qchem/gamess/vb2000                                                 
 MAXIMUM MEMORY USE IS:     6500000
 THIS IS TAKEN AS THE MAXIMUM OF THE UNUSED MEMORY REQUESTED
 IN GAMESS $SYSTEM BLOCK AND MEMORY REQUESTED IN VB2000 DATA

 Input of molecule
 =================
 #! VB(4)/CC-PVDZ PRINTALL                                                       
                                                                                 
 Title: Water                                                                           


 MACROITERATION CONVERGENCE TOLERANCE TIGHTENED
 TO 10.00**(-7) FOR GEOMETRY OPTIMIZATION.

 Charge =  0 Multiplicity =  1

 ATOM      ATOMIC                      COORDINATES (ANGS)
           CHARGE         X                   Y                   Z
 O           8.0     0.0000000000        0.0000000000        0.0000000000
 H           1.0     0.0000000000        0.0000000000        0.9999999995
 H           1.0     0.9848077526        0.0000000000       -0.1736481776

 Hartree-Fock Energy from Gamess run =     -76.021286230275

 Basis set size =   25

                    PARAMETER LIMIT VALUES
 Max. no. of atoms                    MAXCEN =   200
 Max. no. of basis functions          MAXBFN =   726
 Max. no. of shells                   MAXSHL =   500
 Max. no. of total primitives         MAXEXP =  1000
 Max. no. of primitives per orbital   MAXPRM =    15
 Max. no. of atoms * no. of orbitals  MAXNAB = 72600
 Increase max basis set size by       NEXTRA =    20
 Max. size for Rumer data             MAXST1 = 33334
 Max. no. of orbitals in group        MAXNOB =   200
 Max. no. of CUBE orbitals            MAXCUB =   100
 Max. no. of groups                   MAXGRP =    99

 BASIS IN $BASIS IS CCD     

 VBO LIB IS: /home/brian/qchem/gamess/vb2000/VBOLIB/VBOLIBCCPVDZ                             
 MODIFYING VBOLIB FOR GAMESS

 Molecular orbitals by HF method
 ===============================================================================
 MO#                       1         2         3         4         5         6
 E(a.u.)             -20.560    -1.320    -0.669    -0.568    -0.492     0.177
 -------------------------------------------------------------------------------

   1  1  O     s     1.00082  -0.00641   0.00000  -0.00251   0.00000   0.05100
   2  1  O     s     0.00093   0.44740   0.00000   0.15192   0.00000  -0.07151
   3  1  O     s    -0.00291   0.40164   0.00000   0.34689   0.00000  -0.94931
   4  1  O     x     0.00128   0.05682  -0.31333  -0.41012   0.00000  -0.16198
   5  1  O     y     0.00000   0.00000   0.00000   0.00000  -0.63340   0.00000
   6  1  O     z     0.00108   0.04768   0.37341  -0.34413   0.00000  -0.13592
   7  1  O     x    -0.00048  -0.00605  -0.15549  -0.27398   0.00000  -0.27930
   8  1  O     y     0.00000   0.00000   0.00000   0.00000  -0.49640   0.00000
   9  1  O     z    -0.00040  -0.00508   0.18530  -0.22990   0.00000  -0.23436
  10  1  O    xx     0.00001   0.00151  -0.02211  -0.00835   0.00000  -0.00598
  11  1  O    yy    -0.00003  -0.00295   0.00000   0.01272   0.00000   0.01083
  12  1  O    zz     0.00002   0.00143   0.02211  -0.00437   0.00000  -0.00485
  13  1  O    xy     0.00000   0.00000   0.00000   0.00000  -0.01378   0.00000
  14  1  O    xz    -0.00001   0.00025   0.00450  -0.01302   0.00000  -0.00371
  15  1  O    yz     0.00000   0.00000   0.00000   0.00000  -0.01156   0.00000
  16  2  H     s    -0.00001   0.17829   0.31646  -0.21421   0.00000   0.06303
  17  2  H     s     0.00042   0.01096   0.10218  -0.04955   0.00000   0.80642
  18  2  H     x     0.00004   0.00547  -0.01128  -0.02431   0.00000  -0.00271
  19  2  H     y     0.00000   0.00000   0.00000   0.00000  -0.02965   0.00000
  20  2  H     z     0.00059  -0.03907  -0.03762   0.02192   0.00000  -0.01936
  21  3  H     s    -0.00001   0.17829  -0.31646  -0.21421   0.00000   0.06303
  22  3  H     s     0.00042   0.01096  -0.10218  -0.04955   0.00000   0.80642
  23  3  H     x     0.00059  -0.03753   0.03901   0.01737   0.00000  -0.01954
  24  3  H     y     0.00000   0.00000   0.00000   0.00000  -0.02965   0.00000
  25  3  H     z    -0.00006   0.01217   0.00457  -0.02775   0.00000   0.00070

 MO#                       7         8         9        10
 E(a.u.)               0.250     0.747     0.835     1.170
 -------------------------------------------------------------------------------

   1  1  O     s     0.00000   0.00000   0.08129  -0.01764
   2  1  O     s     0.00000   0.00000   0.27552  -0.15213
   3  1  O     s     0.00000   0.00000  -0.37853  -0.59905
   4  1  O     x    -0.19180  -0.16981   0.27735   0.56666
   5  1  O     y     0.00000   0.00000   0.00000   0.00000
   6  1  O     z     0.22858   0.20237   0.23272   0.47548
   7  1  O     x    -0.42616  -0.24767  -0.01853  -0.93831
   8  1  O     y     0.00000   0.00000   0.00000   0.00000
   9  1  O     z     0.50788   0.29516  -0.01555  -0.78734
  10  1  O    xx    -0.01472   0.09093  -0.03863  -0.00117
  11  1  O    yy     0.00000   0.00000   0.08948  -0.00557
  12  1  O    zz     0.01472  -0.09093  -0.05086   0.00675
  13  1  O    xy     0.00000   0.00000   0.00000   0.00000
  14  1  O    xz     0.00300  -0.01851   0.04004  -0.02594
  15  1  O    yz     0.00000   0.00000   0.00000   0.00000
  16  2  H     s    -0.04180  -0.94023  -0.79997   0.51536
  17  2  H     s    -1.38351   0.77149   0.58122   0.08644
  18  2  H     x    -0.00132  -0.05894   0.11025  -0.19510
  19  2  H     y     0.00000   0.00000   0.00000   0.00000
  20  2  H     z     0.02106  -0.13162  -0.25471  -0.21172
  21  3  H     s     0.04180   0.94023  -0.79997   0.51536
  22  3  H     s     1.38351  -0.77149   0.58122   0.08644
  23  3  H     x    -0.02052   0.13985  -0.23169  -0.24239
  24  3  H     y     0.00000   0.00000   0.00000   0.00000
  25  3  H     z     0.00495   0.03519   0.15281  -0.15537


 Localized molecular orbitals and the bond labels
 ===============================================================================
 LMO#                      1         2         3         4         5
 E(a.u.)             -19.706    -1.676    -0.492    -0.867    -0.867
 Bond Label            1:(0)     1:(1)     1:(2)    3-1(1)    2-1(1)
 -------------------------------------------------------------------------------

   1  1  O     s     0.98006   0.19745  -0.00001  -0.03305   0.03305
   2  1  O     s    -0.09295   0.39068  -0.00001  -0.17604   0.17604
   3  1  O     s    -0.11363   0.51056  -0.00001  -0.06352   0.06352
   4  1  O     x     0.04346  -0.27777   0.00000  -0.43649  -0.00663
   5  1  O     y    -0.00000  -0.00001  -0.63340   0.00000  -0.00000
   6  1  O     z     0.03646  -0.23307   0.00000   0.08370   0.44439
   7  1  O     x     0.03507  -0.21284   0.00000  -0.22946   0.00957
   8  1  O     y    -0.00000  -0.00001  -0.49640   0.00000  -0.00000
   9  1  O     z     0.02943  -0.17860   0.00000   0.03074   0.23132
  10  1  O    xx     0.00081  -0.00544   0.00000  -0.02020  -0.01106
  11  1  O    yy    -0.00114   0.00789  -0.00000   0.00731  -0.00731
  12  1  O    zz     0.00033  -0.00245   0.00000   0.01289   0.01837
  13  1  O    xy    -0.00000  -0.00000  -0.01378   0.00000  -0.00000
  14  1  O    xz     0.00159  -0.00978   0.00000  -0.00279   0.00916
  15  1  O    yz    -0.00000  -0.00000  -0.01156   0.00000  -0.00000
  16  2  H     s    -0.00279  -0.05401   0.00000   0.03044   0.41709
  17  2  H     s     0.00483  -0.03099   0.00000   0.04404   0.10046
  18  2  H     x     0.00219  -0.01518   0.00000  -0.02186   0.00591
  19  2  H     y    -0.00000  -0.00000  -0.02965   0.00000  -0.00000
  20  2  H     z     0.00434  -0.00713   0.00000   0.00452  -0.05773
  21  3  H     s    -0.00279  -0.05401   0.00000  -0.41709  -0.03044
  22  3  H     s     0.00483  -0.03099   0.00000  -0.10046  -0.04404
  23  3  H     x     0.00465  -0.00966   0.00000   0.05583  -0.00066
  24  3  H     y    -0.00000  -0.00000  -0.02965   0.00000  -0.00000
  25  3  H     z     0.00140  -0.01371   0.00000  -0.01584   0.02231


 Mulliken population of localized molecular orbitals
 ===============================================================================
 LMO#                      1         2         3         4         5
 E(a.u.)             -19.706    -1.676    -0.492    -0.867    -0.867
 Bond Label            1:(0)     1:(1)     1:(2)    3-1(1)    2-1(1)
 -------------------------------------------------------------------------------

   1         O       2.00057   2.03396   1.96131   1.17396   1.17396
   2         H      -0.00029  -0.01698   0.01935  -0.00989   0.83593
   3         H      -0.00029  -0.01698   0.01935   0.83593  -0.00989


 PARTITIONING OF LMOs INTO GROUPS ($LMOGRP)
 =======================================================================
 LMO#     1  2  3  4  5
 Group#   1  1  1  2  2
 Split    0  0  0  1  1




 Initial guess of orbitals
 ===============================================================================
 ORBITAL#                  1         2         3         4         5         6
 Bond Label            1:(0)     1:(1)     1:(2)    3-1(1)    3-1(1)    2-1(1)
 -------------------------------------------------------------------------------

   1  1  O     s     0.98006   0.19745  -0.00001  -0.07204   0.02966   0.07204
   2  1  O     s    -0.09295   0.39068  -0.00001  -0.31332   0.05918   0.31332
   3  1  O     s    -0.11363   0.51056  -0.00001  -0.14666   0.07734   0.14665
   4  1  O     x     0.04346  -0.27777   0.00000  -0.66359  -0.04207  -0.03574
   5  1  O     y    -0.00000  -0.00001  -0.63340   0.00000   0.00000  -0.00000
   6  1  O     z     0.03646  -0.23307   0.00000   0.15330  -0.03530   0.68013
   7  1  O     x     0.03507  -0.21284   0.00000  -0.34278  -0.03224  -0.00426
   8  1  O     y    -0.00000  -0.00001  -0.49640   0.00000   0.00000  -0.00000
   9  1  O     z     0.02943  -0.17860   0.00000   0.06476  -0.02705   0.34881
  10  1  O    xx     0.00081  -0.00544   0.00000  -0.03138  -0.00082  -0.01795
  11  1  O    yy    -0.00114   0.00789  -0.00000   0.01082   0.00120  -0.01082
  12  1  O    zz     0.00033  -0.00245   0.00000   0.02056  -0.00037   0.02877
  13  1  O    xy    -0.00000  -0.00000  -0.01378   0.00000   0.00000  -0.00000
  14  1  O    xz     0.00159  -0.00978   0.00000  -0.00352  -0.00148   0.01356
  15  1  O    yz    -0.00000  -0.00000  -0.01156   0.00000   0.00000  -0.00000
  16  2  H     s    -0.00279  -0.05401   0.00000   0.00494  -0.00818  -0.00494
  17  2  H     s     0.00483  -0.03099   0.00000   0.00282  -0.00469  -0.00282
  18  2  H     x     0.00219  -0.01518   0.00000   0.00138  -0.00230  -0.00138
  19  2  H     y    -0.00000  -0.00000  -0.02965  -0.00000   0.00000   0.00000
  20  2  H     z     0.00434  -0.00713   0.00000   0.00064  -0.00108  -0.00064
  21  3  H     s    -0.00279  -0.05401   0.00000   0.00494  -0.86076  -0.00494
  22  3  H     s     0.00483  -0.03099   0.00000   0.00282  -0.21004  -0.00282
  23  3  H     x     0.00465  -0.00966   0.00000   0.00087   0.11265  -0.00087
  24  3  H     y    -0.00000  -0.00000  -0.02965  -0.00000   0.00000   0.00000
  25  3  H     z     0.00140  -0.01371   0.00000   0.00125  -0.03446  -0.00125

 ORBITAL#                  7
 Bond Label           2-1(1)
 -------------------------------------------------------------------------------

   1  1  O     s    -0.02966
   2  1  O     s    -0.05918
   3  1  O     s    -0.07734
   4  1  O     x     0.04207
   5  1  O     y    -0.00000
   6  1  O     z     0.03530
   7  1  O     x     0.03224
   8  1  O     y    -0.00000
   9  1  O     z     0.02705
  10  1  O    xx     0.00082
  11  1  O    yy    -0.00120
  12  1  O    zz     0.00037
  13  1  O    xy    -0.00000
  14  1  O    xz     0.00148
  15  1  O    yz    -0.00000
  16  2  H     s     0.86076
  17  2  H     s     0.21004
  18  2  H     x     0.01438
  19  2  H     y    -0.00000
  20  2  H     z    -0.11692
  21  3  H     s     0.00818
  22  3  H     s     0.00469
  23  3  H     x     0.00146
  24  3  H     y    -0.00000
  25  3  H     z     0.00208


      GENERAL CONTROLS ($GENCTL)
 ====================================
 Number of electron groups       =    2
 Maximum macro-iterations        =   24
 Energy threshold           = 10**(- 7)
 Restart calculation(0/1/2)      =    0
 Group#                     1  2
 Num. of electrons          6  4
 Num. of spins              0  0
 Num. of orbitals           3  4
 Method#                    1  2

 SYMBOLIC VB STRUCTURE(S) OF GROUP  2
 STR. NO.       RUMER PATTERN  
    1           1  2   3  4


 MAP FILE IS: /home/brian/qchem/gamess/vb2000/MAP/MAP0400t                                    

 VB-ORBITAL OPTIMIZATION OF GROUP  2 ...
 GROUP =  2  ITER =  1 CMAX =  0.15000000000000
 GROUP =  2  ITER =  2 CMAX =  0.10040187587211
 GROUP =  2  ITER =  3 CMAX =  0.05407142236912
 GROUP =  2  ITER =  4 CMAX =  0.02400513690878
 GROUP =  2  ITER =  5 CMAX =  0.00580779881455
 GROUP =  2  ITER =  6 CMAX =  0.00228881007226
 GROUP =  2  ITER =  7 CMAX =  0.00090604919575

 ENERGY AND DIFF OF MACROITER    1 =    -76.05541267    -76.05541267

 VB-ORBITAL OPTIMIZATION OF GROUP  2 ...
 GROUP =  2  ITER =  1 CMAX =  0.01508686632466
 GROUP =  2  ITER =  2 CMAX =  0.00994228700818
 GROUP =  2  ITER =  3 CMAX =  0.00929574973944
 GROUP =  2  ITER =  4 CMAX =  0.00795972721263
 GROUP =  2  ITER =  5 CMAX =  0.15037473112511
 GROUP =  2  ITER =  6 CMAX =  0.03626357599249
 GROUP =  2  ITER =  7 CMAX =  0.06673420780630
 GROUP =  2  ITER =  8 CMAX =  0.02735193334957
 GROUP =  2  ITER =  9 CMAX =  0.01894314930432
 GROUP =  2  ITER = 10 CMAX =  0.00378049604196
 GROUP =  2  ITER = 11 CMAX =  0.00167289809561
 GROUP =  2  ITER = 12 CMAX =  0.00080833254576

 ENERGY AND DIFF OF MACROITER    2 =    -76.06644646     -0.01103379

 VB-ORBITAL OPTIMIZATION OF GROUP  2 ...
 GROUP =  2  ITER =  1 CMAX =  0.00449323304541
 GROUP =  2  ITER =  2 CMAX =  0.01477240592733
 GROUP =  2  ITER =  3 CMAX =  0.00223508130386
 GROUP =  2  ITER =  4 CMAX =  0.00001839869821

 ENERGY AND DIFF OF MACROITER    3 =    -76.06694095     -0.00049449

 VB-ORBITAL OPTIMIZATION OF GROUP  2 ...
 GROUP =  2  ITER =  1 CMAX =  0.00280838248904
 GROUP =  2  ITER =  2 CMAX =  0.00512771012108
 GROUP =  2  ITER =  3 CMAX =  0.00027599677342

 ENERGY AND DIFF OF MACROITER    4 =    -76.06713130     -0.00019035

 VB-ORBITAL OPTIMIZATION OF GROUP  2 ...
 GROUP =  2  ITER =  1 CMAX =  0.00172401140092
 GROUP =  2  ITER =  2 CMAX =  0.00318076851824
 GROUP =  2  ITER =  3 CMAX =  0.00006767663910

 ENERGY AND DIFF OF MACROITER    5 =    -76.06721483     -0.00008352

 VB-ORBITAL OPTIMIZATION OF GROUP  2 ...
 GROUP =  2  ITER =  1 CMAX =  0.00105383795794
 GROUP =  2  ITER =  2 CMAX =  0.00144734308290
 GROUP =  2  ITER =  3 CMAX =  0.00003260248514

 ENERGY AND DIFF OF MACROITER    6 =    -76.06724329     -0.00002846

 VB-ORBITAL OPTIMIZATION OF GROUP  2 ...
 GROUP =  2  ITER =  1 CMAX =  0.00055405681221

 ENERGY AND DIFF OF MACROITER    7 =    -76.06725243     -0.00000914

 VB-ORBITAL OPTIMIZATION OF GROUP  2 ...
 GROUP =  2  ITER =  1 CMAX =  0.00046789251597

 ENERGY AND DIFF OF MACROITER    8 =    -76.06725618     -0.00000375

 VB-ORBITAL OPTIMIZATION OF GROUP  2 ...
 GROUP =  2  ITER =  1 CMAX =  0.00043493238366

 ENERGY AND DIFF OF MACROITER    9 =    -76.06725829     -0.00000211

 VB-ORBITAL OPTIMIZATION OF GROUP  2 ...
 GROUP =  2  ITER =  1 CMAX =  0.00036320108407

 ENERGY AND DIFF OF MACROITER   10 =    -76.06725942     -0.00000113

 VB-ORBITAL OPTIMIZATION OF GROUP  2 ...
 GROUP =  2  ITER =  1 CMAX =  0.00030359413788

 ENERGY AND DIFF OF MACROITER   11 =    -76.06726002     -0.00000060

 VB-ORBITAL OPTIMIZATION OF GROUP  2 ...
 GROUP =  2  ITER =  1 CMAX =  0.00024342242252

 ENERGY AND DIFF OF MACROITER   12 =    -76.06726034     -0.00000032

 VB-ORBITAL OPTIMIZATION OF GROUP  2 ...
 GROUP =  2  ITER =  1 CMAX =  0.00019762507938

 ENERGY AND DIFF OF MACROITER   13 =    -76.06726051     -0.00000017

 VB-ORBITAL OPTIMIZATION OF GROUP  2 ...
 GROUP =  2  ITER =  1 CMAX =  0.00015885754453

 ENERGY AND DIFF OF MACROITER   14 =    -76.06726059     -0.00000009

 VB-ORBITAL OPTIMIZATION OF GROUP  2 ...
 GROUP =  2  ITER =  1 CMAX =  0.00013009618241


 OVERLAP MATRIX OF VB ORBITALS FOR GROUP   2

        1      2      3      4
 ===============================
   1 1.0000
   2 0.7997 1.0000
   3-0.1535-0.0791 1.0000
   4-0.0791-0.0109 0.7997 1.0000

 ENERGY AND DIFF OF MACROITER   15 =    -76.06726064     -0.00000005


 MULLIKEN CHARGES ON ATOMS
 -------------------------
  ATOM             CHARGE 

    1            -0.29832
    2             0.14916
    3             0.14916

 -------------------------


 ORBITALS OF EACH ELECTRON GROUP IN AO BASIS: ORBITAL(GROUP)
 ===========================================================================
    Orbital#             1         2         3         4         5         6
      Group#             1         1         1         2         2         2
 ---------------------------------------------------------------------------
  AO# LABELS
   1  1  O     s   0.99235  -0.13112  -0.00001  -0.02696   0.02074   0.02696
   2  1  O     s  -0.06120  -0.45070   0.00000  -0.19562   0.01082   0.19562
   3  1  O     s  -0.07492  -0.53068   0.00001  -0.01892   0.13315   0.01892
   4  1  O     x   0.02597   0.18602  -0.00000  -0.69772  -0.22368   0.07919
   5  1  O     y  -0.00001  -0.00001  -0.63361   0.00000   0.00000  -0.00000
   6  1  O     z   0.02179   0.15609  -0.00000   0.04261   0.00405   0.69452
   7  1  O     x   0.02105   0.15847  -0.00000  -0.28017  -0.20553   0.05275
   8  1  O     y  -0.00001  -0.00000  -0.49671  -0.00000   0.00000   0.00000
   9  1  O     z   0.01767   0.13297  -0.00000  -0.00416  -0.01969   0.27519
  10  1  O    xx  -0.00047   0.00543  -0.00000  -0.03783  -0.01239  -0.01258
  11  1  O    yy  -0.00162  -0.00323   0.00000   0.01190  -0.00524  -0.01190
  12  1  O    zz  -0.00076   0.00329  -0.00000   0.01558  -0.00416   0.03483
  13  1  O    xy  -0.00000  -0.00000  -0.01357   0.00000  -0.00000  -0.00000
  14  1  O    xz   0.00095   0.00699  -0.00000  -0.00470  -0.00400   0.01496
  15  1  O    yz  -0.00000  -0.00000  -0.01138   0.00000   0.00000  -0.00000
  16  2  H     s  -0.00361  -0.01956   0.00000  -0.00940   0.02262   0.11842
  17  2  H     s   0.00304   0.02141  -0.00000   0.01467   0.04386   0.04489
  18  2  H     x   0.00119   0.00893  -0.00000  -0.02253  -0.02210   0.00428
  19  2  H     y  -0.00000  -0.00000  -0.02899   0.00000   0.00000   0.00000
  20  2  H     z   0.00327   0.01946  -0.00000   0.00788  -0.00097  -0.03926
  21  3  H     s  -0.00361  -0.01956   0.00000  -0.11842  -0.70139   0.00940
  22  3  H     s   0.00304   0.02141  -0.00000  -0.04489  -0.15756  -0.01467
  23  3  H     x   0.00343   0.02072  -0.00000   0.03792   0.05133  -0.00385
  24  3  H     y  -0.00000  -0.00000  -0.02899  -0.00000   0.00000   0.00000
  25  3  H     z   0.00061   0.00541  -0.00000  -0.01103  -0.02293   0.02355

 ===========================================================================
    Orbital#             7
      Group#             2
 ---------------------------------------------------------------------------
  AO# LABELS
   1  1  O     s  -0.02074
   2  1  O     s  -0.01082
   3  1  O     s  -0.13315
   4  1  O     x   0.03486
   5  1  O     y   0.00000
   6  1  O     z   0.22099
   7  1  O     x   0.05508
   8  1  O     y  -0.00000
   9  1  O     z   0.19898
  10  1  O    xx   0.00559
  11  1  O    yy   0.00524
  12  1  O    zz   0.01096
  13  1  O    xy  -0.00000
  14  1  O    xz   0.00538
  15  1  O    yz   0.00000
  16  2  H     s   0.70139
  17  2  H     s   0.15756
  18  2  H     x   0.01367
  19  2  H     y  -0.00000
  20  2  H     z  -0.05453
  21  3  H     s  -0.02262
  22  3  H     s  -0.04386
  23  3  H     x   0.00479
  24  3  H     y  -0.00000
  25  3  H     z   0.02159


 CALCULATION OF POSITION AND EXTENT OF VB ORBITALS

 DEFAULT CENTROIDS AND EXTENTS.

 MOLECULAR GEOMETRY ABOUT CENTER OF MASS

  Atom#   ATOMIC NO.     X        Y        Z
    1         8       -0.0551   0.0000  -0.0462
    2         1       -0.0551   0.0000   0.9538
    3         1        0.9297   0.0000  -0.2199

 CENTROIDS OF CHARGE FOR EACH VB GROUP & DISTANCES FROM 3 ATOMS

                                                  DISTANCES FROM ATOMS
 Orbital#   Group#       X        Y        Z        1        2        3
    4         2        0.1887  -0.0000  -0.0536   0.2440   1.0364   0.7594
    5         2        0.7066  -0.0000  -0.1532   0.7691   1.3437   0.2329
    6         2       -0.0200  -0.0000   0.1952   0.2440   0.7594   1.0364
    7         2       -0.0281  -0.0000   0.7224   0.7691   0.2329   1.3437

 EXTENT OF ORBITAL MEASURED BY (<R**2>)

 Orbital#   Group#     <X**2>   <Y**2>   <Z**2>   <R**2> Sqrt<R**2>

    4         2        0.2321   0.0910   0.0962   0.4194   0.6476
    5         2        0.3297   0.1486   0.1580   0.6363   0.7977
    6         2        0.0972   0.0910   0.2311   0.4194   0.6476
    7         2        0.1521   0.1486   0.3356   0.6363   0.7977

 WORDS OF DYNAMIC MEMORY USED IN VB2000 CODE ONLY:       71358
 NOTE THAT THIS IS IN ADDITION TO MEMORY USED BY GAMESS
 PRINTED NEAR END OF OUTPUT. ADD THE TWO AMOUNTS TO GIVE
 THE TOTAL MEMORY USED BY THE JOB

 STATISTICS OF CPU TIMES (SECONDS)
 CPU TIME FOR INITIALIZATION        0.010
 CPU TIME FOR MACROITERATION        0.610
 TOTAL CPU TIME                     0.620

 STEP CPU TIME =     0.68 TOTAL CPU TIME =        0.7 (    0.0 MIN)
 TOTAL WALL CLOCK TIME=        0.7 SECONDS, CPU UTILIZATION IS  98.63%

 **************************************************************
 *                                                            *
 *                  ENDING GAMESS(US) VB2000                  *
 *                                                            *
 *  Properties for individual molecular orbitals are correct  *
 *   only for VB modified orbitals in a Hartree-Fock group.   *
 *                                                            *
 **************************************************************

     ----------------------------------
     PROPERTIES FOR THE VB WAVEFUNCTION
     ----------------------------------

          -----------------
          ENERGY COMPONENTS
          -----------------

         WAVEFUNCTION NORMALIZATION =       1.0000000000

                ONE ELECTRON ENERGY =    -122.3920185324
                TWO ELECTRON ENERGY =      37.5125259866
           NUCLEAR REPULSION ENERGY =       8.8122319071
                                      ------------------
                       TOTAL ENERGY =     -76.0672606387

 ELECTRON-ELECTRON POTENTIAL ENERGY =      37.5125259866
  NUCLEUS-ELECTRON POTENTIAL ENERGY =    -198.3218039394
   NUCLEUS-NUCLEUS POTENTIAL ENERGY =       8.8122319071
                                      ------------------
             TOTAL POTENTIAL ENERGY =    -151.9970460458
               TOTAL KINETIC ENERGY =      75.9297854070
                 VIRIAL RATIO (V/T) =       2.0018105574

          ---------------------------------------
          MULLIKEN AND LOWDIN POPULATION ANALYSES
          ---------------------------------------

     ATOMIC MULLIKEN POPULATION IN EACH MOLECULAR ORBITAL

                      1          2          3          4          5

                  2.000000   2.000000   2.000000   2.000000   2.000000

    1             2.000113   1.534787   1.182900   1.664650   1.961309
    2            -0.000056   0.232606   0.408550   0.167675   0.019346
    3            -0.000056   0.232606   0.408550   0.167675   0.019346

               ----- POPULATIONS IN EACH AO -----
                             MULLIKEN      LOWDIN
              1  O  1  S      2.00188     1.90519
              2  O  1  S      0.84648     0.60743
              3  O  1  S      0.85801     0.51876
              4  O  1  X      0.83896     0.77771
              5  O  1  Y      1.13103     1.09291
              6  O  1  Z      0.81696     0.75207
              7  O  1  X      0.49536     0.61433
              8  O  1  Y      0.83021     0.80028
              9  O  1  Z      0.46377     0.58927
             10  O  1 XX      0.00630     0.19087
             11  O  1 YY      0.00360     0.18287
             12  O  1 ZZ      0.00059     0.19162
             13  O  1 XY      0.00050     0.00016
             14  O  1 XZ      0.00042     0.00055
             15  O  1 YZ      0.00425     0.00011
             16  H  2  S      0.68956     0.55865
             17  H  2  S      0.08753     0.17344
             18  H  2  X      0.01435     0.03168
             19  H  2  Y      0.01887     0.05327
             20  H  2  Z      0.04053     0.07101
             21  H  3  S      0.68956     0.55854
             22  H  3  S      0.08753     0.17344
             23  H  3  X      0.03937     0.07119
             24  H  3  Y      0.01887     0.05327
             25  H  3  Z      0.01551     0.03137

          ----- MULLIKEN ATOMIC OVERLAP POPULATIONS -----
          (OFF-DIAGONAL ELEMENTS NEED TO BE MULTIPLIED BY 2)

             1           2           3

    1    7.6564469
    2    0.3209356   0.5621986
    3    0.3209356  -0.0322931   0.5621986

          TOTAL MULLIKEN AND LOWDIN ATOMIC POPULATIONS
       ATOM         MULL.POP.    CHARGE          LOW.POP.     CHARGE
    1 O             8.298318   -0.298318         8.224138   -0.224138
    2 H             0.850841    0.149159         0.888058    0.111942
    3 H             0.850841    0.149159         0.887804    0.112196

          MULLIKEN SPHERICAL HARMONIC POPULATIONS
       ATOM           S       P       D      F      G      H      I    TOTAL
    1 O             3.71    4.58    0.01   0.00   0.00   0.00   0.00    8.30
    2 H             0.78    0.07    0.00   0.00   0.00   0.00   0.00    0.85
    3 H             0.78    0.07    0.00   0.00   0.00   0.00   0.00    0.85

          -------------------------------
          BOND ORDER AND VALENCE ANALYSIS     BOND ORDER THRESHOLD=0.050
          -------------------------------

                   BOND                       BOND                       BOND
  ATOM PAIR DIST  ORDER      ATOM PAIR DIST  ORDER      ATOM PAIR DIST  ORDER
    1   2  1.000  0.969        1   3  1.000  0.969

                       TOTAL       BONDED        FREE
      ATOM            VALENCE     VALENCE     VALENCE
    1 O                 2.037       1.939       0.098
    2 H                 1.021       0.974       0.047
    3 H                 1.021       0.974       0.047

          ---------------------
          ELECTROSTATIC MOMENTS
          ---------------------

 POINT   1           X           Y           Z (BOHR)    CHARGE
                 0.104138    0.000000    0.087382        0.00 (A.U.)
         DX          DY          DZ         /D/  (DEBYE)
     1.548409    0.000000    1.299270    2.021305
 ...... END OF PROPERTY EVALUATION ......
 STEP CPU TIME =     0.00 TOTAL CPU TIME =        0.7 (    0.0 MIN)
 TOTAL WALL CLOCK TIME=        0.7 SECONDS, CPU UTILIZATION IS  98.63%

 TRUDGE ENERGY VALUE AT NSTEP=   0 IS      -76.0672606387
 --------------------------------------------------------------
 INTERNAL COORDINATES (ANGSTROMS/DEGREE)
  I   BOND     ALPHA      BETA    SIGN ICONX   IATCON    INATOM
  1 0.0000000   0.00000   0.00000 -1.0     1200120042003      1
  2 1.0000000   0.00000   0.00000  1.0     2200120042002      2
  3 1.0000000 110.51709   0.00000  1.0     2200120042002      3
 --------------------------------------------------------------
 ----- TRUDGE RESTART DATA AT NSTEP   1 --------
 $TRUDGE OPTMIZ=GEOMETRY  NPAR= 3
         IEX(1)=   21,   31,   32,
         P(1)=      1.000000,      1.000000,    110.517092,
 $END
 ...... END OF ONE-ELECTRON INTEGRALS ......
 STEP CPU TIME =     0.00 TOTAL CPU TIME =        0.7 (    0.0 MIN)
 TOTAL WALL CLOCK TIME=        0.7 SECONDS, CPU UTILIZATION IS  98.63%
 TOTAL NUMBER OF NONZERO TWO-ELECTRON INTEGRALS =               22444
          2 INTEGRAL RECORDS WERE STORED ON DISK FILE  8.
  ...... END OF TWO-ELECTRON INTEGRALS .....
 STEP CPU TIME =     0.01 TOTAL CPU TIME =        0.7 (    0.0 MIN)
 TOTAL WALL CLOCK TIME=        0.7 SECONDS, CPU UTILIZATION IS  98.65%

          --------------------------
                 RHF SCF CALCULATION
          --------------------------
     DENSITY MATRIX CONV=  1.00E-05

 ITER EX DEM     TOTAL ENERGY        E CHANGE  DENSITY CHANGE     ORB. GRAD
          ---------------START SECOND ORDER SCF---------------
   1  0  0      -76.0160232235   -76.0160232235   0.047964139   0.015827472
   2  1  0      -76.0196355151    -0.0036122916   0.015717180   0.004648168
   3  2  0      -76.0199320315    -0.0002965164   0.001423479   0.000832042
   4  3  0      -76.0199418995    -0.0000098681   0.000680522   0.000323388
   5  4  0      -76.0199432054    -0.0000013058   0.000234672   0.000159132
   6  5  0      -76.0199432683    -0.0000000630   0.000045944   0.000051528
   7  6  0      -76.0199432800    -0.0000000117   0.000011201   0.000008234
   8  7  0      -76.0199432807    -0.0000000007   0.000002539   0.000001796
   9  8  0      -76.0199432808    -0.0000000000   0.000000886   0.000000579

          -----------------
          DENSITY CONVERGED
          -----------------
     TIME TO FORM FOCK OPERATORS=       0.0 SECONDS (       0.0 SEC/ITER)
     TIME TO SOLVE SCF EQUATIONS=       0.0 SECONDS (       0.0 SEC/ITER)

 FINAL RHF ENERGY IS      -76.0199432808 AFTER   9 ITERATIONS
 ...... END OF RHF CALCULATION ......
 STEP CPU TIME =     0.01 TOTAL CPU TIME =        0.7 (    0.0 MIN)
 TOTAL WALL CLOCK TIME=        0.8 SECONDS, CPU UTILIZATION IS  98.67%

 **************************************************************
 *                                                            *
 *         ENTERING VB2000 INTERFACED INTO GAMESS(US)         *
 *                                                            *
 **************************************************************

 JOB NAME IS exam-vb07                                                       

 VB2000 DIRECTORY IS: /home/brian/qchem/gamess/vb2000                                                 
 MAXIMUM MEMORY USE IS:     6500000
 THIS IS TAKEN AS THE MAXIMUM OF THE UNUSED MEMORY REQUESTED
 IN GAMESS $SYSTEM BLOCK AND MEMORY REQUESTED IN VB2000 DATA

 Input of molecule
 =================
 #! VB(4)/CC-PVDZ PRINTALL                                                       
                                                                                 
 Title: Water                                                                           


 MACROITERATION CONVERGENCE TOLERANCE TIGHTENED
 TO 10.00**(-7) FOR GEOMETRY OPTIMIZATION.

 Charge =  0 Multiplicity =  1

 ATOM      ATOMIC                      COORDINATES (ANGS)
           CHARGE         X                   Y                   Z
 O           8.0     0.0000000000        0.0000000000        0.0000000000
 H           1.0     0.0000000000        0.0000000000        0.9999999995
 H           1.0     0.9365676774        0.0000000000       -0.3504867826

 Hartree-Fock Energy from Gamess run =     -76.019943280773

 Basis set size =   25

 BASIS IN $BASIS IS CCD     

 VBO LIB IS: /home/brian/qchem/gamess/vb2000/VBOLIB/VBOLIBCCPVDZ                             
 MODIFYING VBOLIB FOR GAMESS

 PARTITIONING OF LMOs INTO GROUPS ($LMOGRP)
 =======================================================================
 LMO#     1  2  3  4  5
 Group#   1  1  1  2  2
 Split    0  0  0  1  1




      GENERAL CONTROLS ($GENCTL)
 ====================================
 Number of electron groups       =    2
 Maximum macro-iterations        =   24
 Energy threshold           = 10**(- 7)
 Restart calculation(0/1/2)      =    0
 Group#                     1  2
 Num. of electrons          6  4
 Num. of spins              0  0
 Num. of orbitals           3  4
 Method#                    1  2

 SYMBOLIC VB STRUCTURE(S) OF GROUP  2
 STR. NO.       RUMER PATTERN  
    1           1  2   3  4


 MAP FILE IS: /home/brian/qchem/gamess/vb2000/MAP/MAP0400t                                    

 ENERGY AND DIFF OF MACROITER    1 =    -76.05448966    -76.05448966

 ENERGY AND DIFF OF MACROITER    2 =    -76.06435438     -0.00986472

 ENERGY AND DIFF OF MACROITER    3 =    -76.06485696     -0.00050257

 ENERGY AND DIFF OF MACROITER    4 =    -76.06505936     -0.00020241

 ENERGY AND DIFF OF MACROITER    5 =    -76.06514440     -0.00008504

 ENERGY AND DIFF OF MACROITER    6 =    -76.06517260     -0.00002820

 ENERGY AND DIFF OF MACROITER    7 =    -76.06518126     -0.00000865

 ENERGY AND DIFF OF MACROITER    8 =    -76.06518468     -0.00000342

 ENERGY AND DIFF OF MACROITER    9 =    -76.06518658     -0.00000190

 ENERGY AND DIFF OF MACROITER   10 =    -76.06518758     -0.00000100

 ENERGY AND DIFF OF MACROITER   11 =    -76.06518810     -0.00000052

 ENERGY AND DIFF OF MACROITER   12 =    -76.06518837     -0.00000027

 ENERGY AND DIFF OF MACROITER   13 =    -76.06518851     -0.00000014

 ENERGY AND DIFF OF MACROITER   14 =    -76.06518859     -0.00000007


 OVERLAP MATRIX OF VB ORBITALS FOR GROUP   2

        1      2      3      4
 ===============================
   1 1.0000
   2 0.7997 1.0000
   3-0.1757-0.0635 1.0000
   4-0.0635 0.0243 0.7997 1.0000

 ENERGY AND DIFF OF MACROITER   15 =    -76.06518863     -0.00000004


 MULLIKEN CHARGES ON ATOMS
 -------------------------
  ATOM             CHARGE 

    1            -0.32452
    2             0.16226
    3             0.16226

 -------------------------


 ORBITALS OF EACH ELECTRON GROUP IN AO BASIS: ORBITAL(GROUP)
 ===========================================================================
    Orbital#             1         2         3         4         5         6
      Group#             1         1         1         2         2         2
 ---------------------------------------------------------------------------
  AO# LABELS
   1  1  O     s  -0.99196   0.13419   0.00001   0.02932  -0.02415  -0.02932
   2  1  O     s   0.06137   0.44013  -0.00000   0.22116  -0.00746  -0.22116
   3  1  O     s   0.07559   0.52163  -0.00001   0.04642  -0.10323  -0.04642
   4  1  O     x  -0.03134  -0.22123   0.00000   0.14594   0.04923  -0.68512
   5  1  O     y  -0.00001  -0.00001  -0.63220   0.00000   0.00000  -0.00000
   6  1  O     z  -0.02173  -0.15342   0.00000   0.67691   0.21810   0.10056
   7  1  O     x  -0.02546  -0.18740   0.00000   0.09040   0.09114  -0.27882
   8  1  O     y  -0.00001  -0.00000  -0.49872   0.00000   0.00000  -0.00000
   9  1  O     z  -0.01766  -0.12996   0.00000   0.26388   0.19635   0.00782
  10  1  O    xx   0.00029  -0.00687   0.00000  -0.01155   0.00745  -0.03929
  11  1  O    yy   0.00166   0.00331  -0.00000  -0.01406   0.00637   0.01406
  12  1  O    zz   0.00091  -0.00222   0.00000   0.03359   0.00687   0.01724
  13  1  O    xy  -0.00000  -0.00000  -0.01382   0.00000   0.00000  -0.00000
  14  1  O    xz  -0.00096  -0.00718   0.00000   0.01977   0.00261   0.00219
  15  1  O    yz  -0.00000  -0.00000  -0.00959   0.00000   0.00000  -0.00000
  16  2  H     s   0.00363   0.01844  -0.00000   0.11388   0.69227   0.00779
  17  2  H     s  -0.00323  -0.02239   0.00000   0.04160   0.15123   0.01216
  18  2  H     x  -0.00119  -0.00867   0.00000   0.00307   0.01571  -0.02184
  19  2  H     y  -0.00000  -0.00000  -0.02841   0.00000   0.00000  -0.00000
  20  2  H     z  -0.00334  -0.01958   0.00000  -0.03762  -0.05572   0.00501
  21  3  H     s   0.00363   0.01844  -0.00000  -0.00779  -0.03882  -0.11388
  22  3  H     s  -0.00323  -0.02239   0.00000  -0.01216  -0.03631  -0.04160
  23  3  H     x  -0.00355  -0.02138   0.00000   0.00296   0.00997   0.03416
  24  3  H     y  -0.00000  -0.00000  -0.02841   0.00000   0.00000   0.00000
  25  3  H     z   0.00006  -0.00126   0.00000   0.02221   0.01845  -0.01606

 ===========================================================================
    Orbital#             7
      Group#             2
 ---------------------------------------------------------------------------
  AO# LABELS
   1  1  O     s   0.02415
   2  1  O     s   0.00746
   3  1  O     s   0.10323
   4  1  O     x  -0.22153
   5  1  O     y  -0.00000
   6  1  O     z   0.03033
   7  1  O     x  -0.21584
   8  1  O     y  -0.00000
   9  1  O     z  -0.01654
  10  1  O    xx  -0.00842
  11  1  O    yy  -0.00637
  12  1  O    zz  -0.00590
  13  1  O    xy   0.00000
  14  1  O    xz  -0.00219
  15  1  O    yz  -0.00000
  16  2  H     s   0.03882
  17  2  H     s   0.03631
  18  2  H     x  -0.02078
  19  2  H     y  -0.00000
  20  2  H     z  -0.00287
  21  3  H     s  -0.69227
  22  3  H     s  -0.15123
  23  3  H     x   0.04668
  24  3  H     y  -0.00000
  25  3  H     z  -0.03424


 WORDS OF DYNAMIC MEMORY USED IN VB2000 CODE ONLY:       71358
 NOTE THAT THIS IS IN ADDITION TO MEMORY USED BY GAMESS
 PRINTED NEAR END OF OUTPUT. ADD THE TWO AMOUNTS TO GIVE
 THE TOTAL MEMORY USED BY THE JOB

 STATISTICS OF CPU TIMES (SECONDS)
 CPU TIME FOR INITIALIZATION        0.010
 CPU TIME FOR MACROITERATION        0.620
 TOTAL CPU TIME                     0.630

 STEP CPU TIME =     0.69 TOTAL CPU TIME =        1.4 (    0.0 MIN)
 TOTAL WALL CLOCK TIME=        1.4 SECONDS, CPU UTILIZATION IS  98.62%

 **************************************************************
 *                                                            *
 *                  ENDING GAMESS(US) VB2000                  *
 *                                                            *
 *  Properties for individual molecular orbitals are correct  *
 *   only for VB modified orbitals in a Hartree-Fock group.   *
 *                                                            *
 **************************************************************

 TRUDGE ENERGY VALUE AT NSTEP=   1 IS      -76.0651886250
 LOOKS =  1   ALF =  0.1000  FUNC =      -76.0651886250
             AMIN =  0.0000  FMIN =      -76.0672606387
            ANEXT =  0.1000 FNEXT =      -76.0651886250
 --------------------------------------------------------------
 INTERNAL COORDINATES (ANGSTROMS/DEGREE)
  I   BOND     ALPHA      BETA    SIGN ICONX   IATCON    INATOM
  1 0.0000000   0.00000   0.00000 -1.0     1200120042003      1
  2 1.0000000   0.00000   0.00000  1.0     2200120042002      2
  3 1.0000000  90.48374   0.00000  1.0     2200120042002      3
 --------------------------------------------------------------
 ----- TRUDGE RESTART DATA AT NSTEP   2 --------
 $TRUDGE OPTMIZ=GEOMETRY  NPAR= 3
         IEX(1)=   21,   31,   32,
         P(1)=      1.000000,      1.000000,     90.483742,
 $END
 ...... END OF ONE-ELECTRON INTEGRALS ......
 STEP CPU TIME =     0.00 TOTAL CPU TIME =        1.4 (    0.0 MIN)
 TOTAL WALL CLOCK TIME=        1.4 SECONDS, CPU UTILIZATION IS  98.62%
 TOTAL NUMBER OF NONZERO TWO-ELECTRON INTEGRALS =               22444
          2 INTEGRAL RECORDS WERE STORED ON DISK FILE  8.
  ...... END OF TWO-ELECTRON INTEGRALS .....
 STEP CPU TIME =     0.01 TOTAL CPU TIME =        1.4 (    0.0 MIN)
 TOTAL WALL CLOCK TIME=        1.5 SECONDS, CPU UTILIZATION IS  98.63%

          --------------------------
                 RHF SCF CALCULATION
          --------------------------
     DENSITY MATRIX CONV=  1.00E-05

 ITER EX DEM     TOTAL ENERGY        E CHANGE  DENSITY CHANGE     ORB. GRAD
          ---------------START SECOND ORDER SCF---------------
   1  0  0      -76.0027969912   -76.0027969912   0.091525157   0.030800307
   2  1  0      -76.0158814828    -0.0130844916   0.034362930   0.008859065
   3  2  0      -76.0170846136    -0.0012031307   0.004419965   0.003782757
   4  3  0      -76.0171383395    -0.0000537260   0.001343169   0.001576891
[...]
    1           1  2   3  4


 MAP FILE IS: /home/brian/qchem/gamess/vb2000/MAP/MAP0400t                                    

 ENERGY AND DIFF OF MACROITER    1 =    -76.05745944    -76.05745944

 ENERGY AND DIFF OF MACROITER    2 =    -76.06827222     -0.01081278

 ENERGY AND DIFF OF MACROITER    3 =    -76.06874649     -0.00047427

 ENERGY AND DIFF OF MACROITER    4 =    -76.06892057     -0.00017408

 ENERGY AND DIFF OF MACROITER    5 =    -76.06897825     -0.00005768

 ENERGY AND DIFF OF MACROITER    6 =    -76.06902211     -0.00004386

 ENERGY AND DIFF OF MACROITER    7 =    -76.06903451     -0.00001240

 ENERGY AND DIFF OF MACROITER    8 =    -76.06903895     -0.00000444

 ENERGY AND DIFF OF MACROITER    9 =    -76.06904120     -0.00000225

 ENERGY AND DIFF OF MACROITER   10 =    -76.06904239     -0.00000118

 ENERGY AND DIFF OF MACROITER   11 =    -76.06904299     -0.00000060

 ENERGY AND DIFF OF MACROITER   12 =    -76.06904330     -0.00000031

 ENERGY AND DIFF OF MACROITER   13 =    -76.06904346     -0.00000016

 ENERGY AND DIFF OF MACROITER   14 =    -76.06904355     -0.00000009


 OVERLAP MATRIX OF VB ORBITALS FOR GROUP   2

        1      2      3      4
 ===============================
   1 1.0000
   2 0.8110 1.0000
   3-0.1726-0.0805 1.0000
   4-0.0805 0.0027 0.8110 1.0000

 ENERGY AND DIFF OF MACROITER   15 =    -76.06904359     -0.00000005


 MULLIKEN CHARGES ON ATOMS
 -------------------------
  ATOM             CHARGE 

    1            -0.27527
    2             0.13764
    3             0.13763

 -------------------------


 ORBITALS OF EACH ELECTRON GROUP IN AO BASIS: ORBITAL(GROUP)
 ===========================================================================
    Orbital#             1         2         3         4         5         6
      Group#             1         1         1         2         2         2
 ---------------------------------------------------------------------------
  AO# LABELS
   1  1  O     s   0.99268   0.12903  -0.00001  -0.02980   0.02462   0.02980
   2  1  O     s  -0.05928   0.44104  -0.00000  -0.21886   0.00609   0.21885
   3  1  O     s  -0.07257   0.51969  -0.00001  -0.02637   0.12507   0.02637
   4  1  O     x   0.02860  -0.20813   0.00000  -0.69258  -0.22683   0.09429
   5  1  O     y  -0.00001  -0.00001  -0.63198  -0.00000  -0.00000   0.00000
   6  1  O     z   0.02287  -0.16641   0.00000   0.05953   0.01410   0.68870
   7  1  O     x   0.02327  -0.17658   0.00000  -0.26782  -0.20070   0.06109
   8  1  O     y  -0.00000  -0.00001  -0.49602  -0.00000  -0.00000   0.00000
   9  1  O     z   0.01861  -0.14119   0.00000  -0.00222  -0.01606   0.26078
  10  1  O    xx  -0.00036  -0.00617   0.00000  -0.04036  -0.01071  -0.01463
  11  1  O    yy  -0.00173   0.00372  -0.00000   0.01418  -0.00678  -0.01418
  12  1  O    zz  -0.00076  -0.00313   0.00000   0.01819  -0.00522   0.03680
  13  1  O    xy  -0.00000  -0.00000  -0.01407  -0.00000   0.00000   0.00000
  14  1  O    xz   0.00102  -0.00777   0.00000  -0.00194  -0.00409   0.01626
  15  1  O    yz  -0.00000  -0.00000  -0.01125  -0.00000  -0.00000   0.00000
  16  2  H     s  -0.00380   0.01893  -0.00000  -0.00989   0.02739   0.12469
  17  2  H     s   0.00278  -0.01981   0.00000   0.01498   0.04256   0.04085
  18  2  H     x   0.00129  -0.00989   0.00000  -0.02325  -0.02303   0.00422
  19  2  H     y  -0.00000  -0.00000  -0.03020  -0.00000  -0.00000  -0.00000
  20  2  H     z   0.00342  -0.02000   0.00000   0.00901  -0.00093  -0.03879
  21  3  H     s  -0.00380   0.01893  -0.00000  -0.12469  -0.71153   0.00989
  22  3  H     s   0.00278  -0.01981   0.00000  -0.04085  -0.14102  -0.01498
  23  3  H     x   0.00362  -0.02169   0.00000   0.03691   0.05328  -0.00367
  24  3  H     y  -0.00000  -0.00000  -0.03020   0.00000  -0.00000   0.00000
  25  3  H     z   0.00051  -0.00525   0.00000  -0.01265  -0.02697   0.02467

 ===========================================================================
    Orbital#             7
      Group#             2
 ---------------------------------------------------------------------------
  AO# LABELS
   1  1  O     s  -0.02462
   2  1  O     s  -0.00609
   3  1  O     s  -0.12506
   4  1  O     x   0.03614
   5  1  O     y   0.00000
   6  1  O     z   0.22437
   7  1  O     x   0.05983
   8  1  O     y   0.00000
   9  1  O     z   0.19226
  10  1  O    xx   0.00701
  11  1  O    yy   0.00678
  12  1  O    zz   0.00892
  13  1  O    xy   0.00000
  14  1  O    xz   0.00505
  15  1  O    yz  -0.00000
  16  2  H     s   0.71152
  17  2  H     s   0.14103
  18  2  H     x   0.01459
  19  2  H     y   0.00000
  20  2  H     z  -0.05791
  21  3  H     s  -0.02739
  22  3  H     s  -0.04256
  23  3  H     x   0.00597
  24  3  H     y   0.00000
  25  3  H     z   0.02226


 WORDS OF DYNAMIC MEMORY USED IN VB2000 CODE ONLY:       71358
 NOTE THAT THIS IS IN ADDITION TO MEMORY USED BY GAMESS
 PRINTED NEAR END OF OUTPUT. ADD THE TWO AMOUNTS TO GIVE
 THE TOTAL MEMORY USED BY THE JOB

 STATISTICS OF CPU TIMES (SECONDS)
 CPU TIME FOR INITIALIZATION        0.020
 CPU TIME FOR MACROITERATION        0.590
 TOTAL CPU TIME                     0.610

 STEP CPU TIME =     0.66 TOTAL CPU TIME =       23.8 (    0.4 MIN)
 TOTAL WALL CLOCK TIME=       23.9 SECONDS, CPU UTILIZATION IS  99.62%

 **************************************************************
 *                                                            *
 *                  ENDING GAMESS(US) VB2000                  *
 *                                                            *
 *  Properties for individual molecular orbitals are correct  *
 *   only for VB modified orbitals in a Hartree-Fock group.   *
 *                                                            *
 **************************************************************

 TRUDGE ENERGY VALUE AT NSTEP=  34 IS      -76.0690435928
 LOOKS =  3   ALF =  0.0002  FUNC =      -76.0690435928
             AMIN =  0.0002  FMIN =      -76.0690435928
            ANEXT =  0.0000 FNEXT =      -76.0690435700
  NEW CURVATURE =  0.54141E+00   ALPHA =   0.0002051
 F=      -76.0690435928 DELTA F=0.64044E-06 DELTA R=0.62793E-03
 --------------------------------------------------------------
 INTERNAL COORDINATES (ANGSTROMS/DEGREE)
  I   BOND     ALPHA      BETA    SIGN ICONX   IATCON    INATOM
  1 0.0000000   0.00000   0.00000 -1.0     1200120042003      1
  2 0.9677783   0.00000   0.00000  1.0     2200120042002      2
  3 0.9677506 102.70943   0.00000  1.0     2200120042002      3
 --------------------------------------------------------------
 ----- TRUDGE RESTART DATA AT NSTEP  35 --------
 $TRUDGE OPTMIZ=GEOMETRY  NPAR= 3
         IEX(1)=   21,   31,   32,
         P(1)=      0.967778,      0.967751,    102.709427,
 $END
 ...... END OF ONE-ELECTRON INTEGRALS ......
 STEP CPU TIME =     0.00 TOTAL CPU TIME =       23.8 (    0.4 MIN)
 TOTAL WALL CLOCK TIME=       23.9 SECONDS, CPU UTILIZATION IS  99.62%
 TOTAL NUMBER OF NONZERO TWO-ELECTRON INTEGRALS =               22444
          2 INTEGRAL RECORDS WERE STORED ON DISK FILE  8.
  ...... END OF TWO-ELECTRON INTEGRALS .....
 STEP CPU TIME =     0.00 TOTAL CPU TIME =       23.8 (    0.4 MIN)
 TOTAL WALL CLOCK TIME=       23.9 SECONDS, CPU UTILIZATION IS  99.58%

          --------------------------
                 RHF SCF CALCULATION
          --------------------------
     DENSITY MATRIX CONV=  1.00E-05

 ITER EX DEM     TOTAL ENERGY        E CHANGE  DENSITY CHANGE     ORB. GRAD
          ---------------START SECOND ORDER SCF---------------
   1  0  0      -76.0260630187   -76.0260630187   0.000000904   0.000000434
   2  1  0      -76.0260630187    -0.0000000000   0.000000430   0.000000258

          -----------------
          DENSITY CONVERGED
          -----------------
     TIME TO FORM FOCK OPERATORS=       0.0 SECONDS (       0.0 SEC/ITER)
     TIME TO SOLVE SCF EQUATIONS=       0.0 SECONDS (       0.0 SEC/ITER)

 FINAL RHF ENERGY IS      -76.0260630187 AFTER   2 ITERATIONS
 ...... END OF RHF CALCULATION ......
 STEP CPU TIME =     0.00 TOTAL CPU TIME =       23.8 (    0.4 MIN)
 TOTAL WALL CLOCK TIME=       23.9 SECONDS, CPU UTILIZATION IS  99.58%

 **************************************************************
 *                                                            *
 *         ENTERING VB2000 INTERFACED INTO GAMESS(US)         *
 *                                                            *
 **************************************************************

 JOB NAME IS exam-vb07                                                       

 VB2000 DIRECTORY IS: /home/brian/qchem/gamess/vb2000                                                 
 MAXIMUM MEMORY USE IS:     6500000
 THIS IS TAKEN AS THE MAXIMUM OF THE UNUSED MEMORY REQUESTED
 IN GAMESS $SYSTEM BLOCK AND MEMORY REQUESTED IN VB2000 DATA

 Input of molecule
 =================
 #! VB(4)/CC-PVDZ PRINTALL                                                       
                                                                                 
 Title: Water                                                                           


 MACROITERATION CONVERGENCE TOLERANCE TIGHTENED
 TO 10.00**(-7) FOR GEOMETRY OPTIMIZATION.

 Charge =  0 Multiplicity =  1

 ATOM      ATOMIC                      COORDINATES (ANGS)
           CHARGE         X                   Y                   Z
 O           8.0     0.0000000000        0.0000000000        0.0000000000
 H           1.0     0.0000000000        0.0000000000        0.9677782688
 H           1.0     0.9440391188        0.0000000000       -0.2129116204

 Hartree-Fock Energy from Gamess run =     -76.026063018736

 Basis set size =   25

 BASIS IN $BASIS IS CCD     

 VBO LIB IS: /home/brian/qchem/gamess/vb2000/VBOLIB/VBOLIBCCPVDZ                             
 MODIFYING VBOLIB FOR GAMESS

 PARTITIONING OF LMOs INTO GROUPS ($LMOGRP)
 =======================================================================
 LMO#     1  2  3  4  5
 Group#   1  1  1  2  2
 Split    0  0  0  1  1




      GENERAL CONTROLS ($GENCTL)
 ====================================
 Number of electron groups       =    2
 Maximum macro-iterations        =   24
 Energy threshold           = 10**(- 7)
 Restart calculation(0/1/2)      =    0
 Group#                     1  2
 Num. of electrons          6  4
 Num. of spins              0  0
 Num. of orbitals           3  4
 Method#                    1  2

 SYMBOLIC VB STRUCTURE(S) OF GROUP  2
 STR. NO.       RUMER PATTERN  
    1           1  2   3  4


 MAP FILE IS: /home/brian/qchem/gamess/vb2000/MAP/MAP0400t                                    

 ENERGY AND DIFF OF MACROITER    1 =    -76.05745942    -76.05745942

 ENERGY AND DIFF OF MACROITER    2 =    -76.06827222     -0.01081280

 ENERGY AND DIFF OF MACROITER    3 =    -76.06874649     -0.00047427

 ENERGY AND DIFF OF MACROITER    4 =    -76.06892056     -0.00017408

 ENERGY AND DIFF OF MACROITER    5 =    -76.06897825     -0.00005768

 ENERGY AND DIFF OF MACROITER    6 =    -76.06902211     -0.00004386

 ENERGY AND DIFF OF MACROITER    7 =    -76.06903451     -0.00001240

 ENERGY AND DIFF OF MACROITER    8 =    -76.06903895     -0.00000444

 ENERGY AND DIFF OF MACROITER    9 =    -76.06904120     -0.00000225

 ENERGY AND DIFF OF MACROITER   10 =    -76.06904239     -0.00000118

 ENERGY AND DIFF OF MACROITER   11 =    -76.06904299     -0.00000060

 ENERGY AND DIFF OF MACROITER   12 =    -76.06904330     -0.00000031

 ENERGY AND DIFF OF MACROITER   13 =    -76.06904346     -0.00000016

 ENERGY AND DIFF OF MACROITER   14 =    -76.06904355     -0.00000009


 OVERLAP MATRIX OF VB ORBITALS FOR GROUP   2

        1      2      3      4
 ===============================
   1 1.0000
   2 0.8110 1.0000
   3-0.1726-0.0805 1.0000
   4-0.0805 0.0027 0.8110 1.0000

 ENERGY AND DIFF OF MACROITER   15 =    -76.06904359     -0.00000005


 MULLIKEN CHARGES ON ATOMS
 -------------------------
  ATOM             CHARGE 

    1            -0.27527
    2             0.13764
    3             0.13763

 -------------------------


 ORBITALS OF EACH ELECTRON GROUP IN AO BASIS: ORBITAL(GROUP)
 ===========================================================================
    Orbital#             1         2         3         4         5         6
      Group#             1         1         1         2         2         2
 ---------------------------------------------------------------------------
  AO# LABELS
   1  1  O     s  -0.99268   0.12903   0.00001  -0.02980   0.02462   0.02980
   2  1  O     s   0.05928   0.44104  -0.00000  -0.21886   0.00609   0.21885
   3  1  O     s   0.07257   0.51969  -0.00001  -0.02637   0.12507   0.02637
   4  1  O     x  -0.02860  -0.20813   0.00000  -0.69258  -0.22683   0.09429
   5  1  O     y  -0.00001  -0.00001  -0.63198  -0.00000  -0.00000   0.00000
   6  1  O     z  -0.02287  -0.16641   0.00000   0.05953   0.01410   0.68870
   7  1  O     x  -0.02327  -0.17658   0.00000  -0.26782  -0.20070   0.06109
   8  1  O     y  -0.00001  -0.00000  -0.49602  -0.00000  -0.00000   0.00000
   9  1  O     z  -0.01861  -0.14119   0.00000  -0.00222  -0.01606   0.26078
  10  1  O    xx   0.00036  -0.00617   0.00000  -0.04036  -0.01071  -0.01463
  11  1  O    yy   0.00173   0.00372  -0.00000   0.01418  -0.00678  -0.01418
  12  1  O    zz   0.00076  -0.00313   0.00000   0.01819  -0.00522   0.03680
  13  1  O    xy  -0.00000  -0.00000  -0.01407  -0.00000   0.00000   0.00000
  14  1  O    xz  -0.00102  -0.00777   0.00000  -0.00194  -0.00409   0.01626
  15  1  O    yz  -0.00000  -0.00000  -0.01125  -0.00000  -0.00000   0.00000
  16  2  H     s   0.00380   0.01893  -0.00000  -0.00989   0.02739   0.12469
  17  2  H     s  -0.00278  -0.01981   0.00000   0.01498   0.04256   0.04085
  18  2  H     x  -0.00129  -0.00989   0.00000  -0.02325  -0.02303   0.00422
  19  2  H     y  -0.00000  -0.00000  -0.03020  -0.00000  -0.00000   0.00000
  20  2  H     z  -0.00342  -0.02000   0.00000   0.00901  -0.00093  -0.03879
  21  3  H     s   0.00380   0.01893  -0.00000  -0.12469  -0.71153   0.00989
  22  3  H     s  -0.00278  -0.01981   0.00000  -0.04085  -0.14102  -0.01498
  23  3  H     x  -0.00362  -0.02169   0.00000   0.03691   0.05328  -0.00367
  24  3  H     y  -0.00000  -0.00000  -0.03020   0.00000  -0.00000   0.00000
  25  3  H     z  -0.00051  -0.00525   0.00000  -0.01265  -0.02697   0.02467

 ===========================================================================
    Orbital#             7
      Group#             2
 ---------------------------------------------------------------------------
  AO# LABELS
   1  1  O     s  -0.02462
   2  1  O     s  -0.00609
   3  1  O     s  -0.12506
   4  1  O     x   0.03614
   5  1  O     y   0.00000
   6  1  O     z   0.22437
   7  1  O     x   0.05983
   8  1  O     y   0.00000
   9  1  O     z   0.19226
  10  1  O    xx   0.00701
  11  1  O    yy   0.00678
  12  1  O    zz   0.00892
  13  1  O    xy   0.00000
  14  1  O    xz   0.00505
  15  1  O    yz   0.00000
  16  2  H     s   0.71152
  17  2  H     s   0.14103
  18  2  H     x   0.01459
  19  2  H     y   0.00000
  20  2  H     z  -0.05791
  21  3  H     s  -0.02739
  22  3  H     s  -0.04256
  23  3  H     x   0.00597
  24  3  H     y   0.00000
  25  3  H     z   0.02226


 WORDS OF DYNAMIC MEMORY USED IN VB2000 CODE ONLY:       71358
 NOTE THAT THIS IS IN ADDITION TO MEMORY USED BY GAMESS
 PRINTED NEAR END OF OUTPUT. ADD THE TWO AMOUNTS TO GIVE
 THE TOTAL MEMORY USED BY THE JOB

 STATISTICS OF CPU TIMES (SECONDS)
 CPU TIME FOR INITIALIZATION        0.020
 CPU TIME FOR MACROITERATION        0.590
 TOTAL CPU TIME                     0.610

 STEP CPU TIME =     0.67 TOTAL CPU TIME =       24.4 (    0.4 MIN)
 TOTAL WALL CLOCK TIME=       24.5 SECONDS, CPU UTILIZATION IS  99.63%

 **************************************************************
 *                                                            *
 *                  ENDING GAMESS(US) VB2000                  *
 *                                                            *
 *  Properties for individual molecular orbitals are correct  *
 *   only for VB modified orbitals in a Hartree-Fock group.   *
 *                                                            *
 **************************************************************

 TRUDGE ENERGY VALUE AT NSTEP=  35 IS      -76.0690435928

 NON-GRADIENT ENERGY MINIMIZATION  ...  CONVERGED

 CONJUGATE DIRECTION =     1
 PARAMETER =     1
 VALUE OF THE FUNCTION =       -76.0690435928
                  FNOT =       -76.0690435928
 $TRURST KSTART= 1  JSTART= 1  TOLF=  0.000100 TOLR=  0.001000
         FNOISE=  0.000010  FNOT= -76.069043593
         RNOT(1)= -0.032752 -0.032781  0.026734
         CURV(1)=  0.365023  0.786668  0.872617
         ALPH(1)=  0.001016  0.003125  0.006250
            V(1)= -0.332857 -0.351688  0.874941
                  -0.598815 -0.637922 -0.484227
                  -0.728441  0.685106 -0.001741
 $END
 --------------------------------------------------------------
 INTERNAL COORDINATES (ANGSTROMS/DEGREE)
  I   BOND     ALPHA      BETA    SIGN ICONX   IATCON    INATOM
  1 0.0000000   0.00000   0.00000 -1.0     1200120042003      1
  2 0.9677783   0.00000   0.00000  1.0     2200120042002      2
  3 0.9677506 102.70943   0.00000  1.0     2200120042002      3
 --------------------------------------------------------------
 COORDINATES OF ALL ATOMS ARE (ANGS)
   ATOM   CHARGE       X              Y              Z
 ------------------------------------------------------------
 O           8.0   0.0000000000   0.0000000000   0.0000000000
 H           1.0   0.0000000000   0.0000000000   0.9677782693
 H           1.0   0.9440391192   0.0000000000  -0.2129116205

          INTERNUCLEAR DISTANCES (ANGS.)
          ------------------------------

                1 O          2 H          3 H     

   1 O       0.0000000    0.9677783 *  0.9677506 *
   2 H       0.9677783 *  0.0000000    1.5117005 *
   3 H       0.9677506 *  1.5117005 *  0.0000000  

  * ... LESS THAN  3.000

 ...... END OF NON-GRADIENT ENERGY MINIMIZATION ......
 STEP CPU TIME =     0.00 TOTAL CPU TIME =       24.4 (    0.4 MIN)
 TOTAL WALL CLOCK TIME=       24.5 SECONDS, CPU UTILIZATION IS  99.63%
               580000  WORDS OF DYNAMIC MEMORY USED
 EXECUTION OF GAMESS TERMINATED NORMALLY Mon Oct 14 07:28:02 2013
 DDI: 263624 bytes (0.3 MB / 0 MWords) used by master data server.

 ----------------------------------------
 CPU timing information for all processes
 ========================================
 0: 23.589 + 0.852 = 24.441
 ----------------------------------------
 ddikick.x: exited gracefully.
unset echo
----- accounting info -----
Files used on the master node titch-64 were:
-rw-r--r-- 1 brian brian    1439 Oct 14 07:27 /scr/brian/exam-vb07.F05
-rw-rw-r-- 1 brian brian  360032 Oct 14 07:28 /scr/brian/exam-vb07.F08
-rw-rw-r-- 1 brian brian 1505120 Oct 14 07:28 /scr/brian/exam-vb07.F10
-rw-rw-r-- 1 brian brian      88 Oct 14 07:28 /scr/brian/exam-vb07.TEMP02
-rw-rw-r-- 1 brian brian      88 Oct 14 07:28 /scr/brian/exam-vb07.TEMP03
-rw-rw-r-- 1 brian brian     448 Oct 14 07:28 /scr/brian/exam-vb07.TEMP04
-rw-rw-r-- 1 brian brian   15093 Oct 14 07:28 /scr/brian/exam-vb07.TEMP-MOD
-rw-rw-r-- 1 brian brian     729 Oct 14 07:27 /scr/brian/exam-vb07.V80
-rw-rw-r-- 1 brian brian       0 Oct 14 07:27 /scr/brian/exam-vb07.V82
-rw-rw-r-- 1 brian brian       0 Oct 14 07:27 /scr/brian/exam-vb07.V83
-rw-rw-r-- 1 brian brian    5548 Oct 14 07:28 /scr/brian/exam-vb07.V84
-rw-rw-r-- 1 brian brian  267624 Oct 14 07:28 /scr/brian/exam-vb07.V85
-rw-rw-r-- 1 brian brian  196592 Oct 14 07:28 /scr/brian/exam-vb07.V86
-rw-rw-r-- 1 brian brian  196592 Oct 14 07:28 /scr/brian/exam-vb07.V87
-rw-rw-r-- 1 brian brian     736 Oct 14 07:28 /scr/brian/exam-vb07.V88
-rw-rw-r-- 1 brian brian       0 Oct 14 07:27 /scr/brian/exam-vb07.V89
ls: No match.
ls: No match.
ls: No match.
Mon Oct 14 07:28:05 EST 2013
0.088u 0.004s 0:27.67 0.2%	0+0k 8+16io 0pf+0w
