----- GAMESS execution script 'rungms' -----
This job is running on host titch-64
under operating system Linux at Mon Oct 14 07:30:07 EST 2013
Available scratch disk space (Kbyte units) at beginning of the job is
Filesystem     1K-blocks      Used Available Use% Mounted on
/dev/sda1      945022356 138268828 758749176  16% /
GAMESS temporary binary files will be written to /scr/brian
GAMESS supplementary output files will be written to /home/brian/scr
Copying input file exam-vb24.inp to your run's scratch directory...
cp tests/exam-vb24.inp /scr/brian/exam-vb24.F05
unset echo
/home/brian/qchem/gamess/ddikick.x /home/brian/qchem/gamess/gamess.01.x exam-vb24 -ddi 1 1 titch-64 -scr /scr/brian

 Distributed Data Interface kickoff program.
 Initiating 1 compute processes on 1 nodes to run the following command:
 /home/brian/qchem/gamess/gamess.01.x exam-vb24 

          ******************************************************
          *         GAMESS VERSION =  1 MAY 2013 (R1)          *
          *             FROM IOWA STATE UNIVERSITY             *
          * M.W.SCHMIDT, K.K.BALDRIDGE, J.A.BOATZ, S.T.ELBERT, *
          *   M.S.GORDON, J.H.JENSEN, S.KOSEKI, N.MATSUNAGA,   *
          *          K.A.NGUYEN, S.J.SU, T.L.WINDUS,           *
          *       TOGETHER WITH M.DUPUIS, J.A.MONTGOMERY       *
          *         J.COMPUT.CHEM.  14, 1347-1363(1993)        *
          **************** 64 BIT LINUX VERSION ****************

  SINCE 1993, STUDENTS AND POSTDOCS WORKING AT IOWA STATE UNIVERSITY
  AND ALSO IN THEIR VARIOUS JOBS AFTER LEAVING ISU HAVE MADE IMPORTANT
  CONTRIBUTIONS TO THE CODE:
     IVANA ADAMOVIC, CHRISTINE AIKENS, YURI ALEXEEV, POOJA ARORA,
     ANDREY ASADCHEV, ROB BELL, PRADIPTA BANDYOPADHYAY, JONATHAN BENTZ,
     BRETT BODE, GALINA CHABAN, WEI CHEN, CHEOL HO CHOI, PAUL DAY,
     ALBERT DEFUSCO, TIM DUDLEY, DMITRI FEDOROV, GRAHAM FLETCHER,
     MARK FREITAG, KURT GLAESEMANN, DAN KEMP, GRANT MERRILL,
     NORIYUKI MINEZAWA, JONATHAN MULLIN, TAKESHI NAGATA,
     SEAN NEDD, HEATHER NETZLOFF, BOSILJKA NJEGIC, RYAN OLSON, MIKE PAK,
     JIM SHOEMAKER, LYUDMILA SLIPCHENKO, SAROM SOK, JIE SONG,
     TETSUYA TAKETSUGU, SIMON WEBB, SOOHAENG YOO, FEDERICO ZAHARIEV

  ADDITIONAL CODE HAS BEEN PROVIDED BY COLLABORATORS IN OTHER GROUPS:
     IOWA STATE UNIVERSITY:
          JOE IVANIC, LAIMUTIS BYTAUTAS, KLAUS RUEDENBERG
     UNIVERSITY OF TOKYO: KIMIHIKO HIRAO, TAKAHITO NAKAJIMA,
          TAKAO TSUNEDA, MUNEAKI KAMIYA, SUSUMU YANAGISAWA,
          KIYOSHI YAGI, MAHITO CHIBA, SEIKEN TOKURA, NAOAKI KAWAKAMI
     UNIVERSITY OF AARHUS: FRANK JENSEN
     UNIVERSITY OF IOWA: VISVALDAS KAIRYS, HUI LI
     NATIONAL INST. OF STANDARDS AND TECHNOLOGY: WALT STEVENS, DAVID GARMER
     UNIVERSITY OF PISA: BENEDETTA MENNUCCI, JACOPO TOMASI
     UNIVERSITY OF MEMPHIS: HENRY KURTZ, PRAKASHAN KORAMBATH
     UNIVERSITY OF ALBERTA: TOBY ZENG, MARIUSZ KLOBUKOWSKI
     UNIVERSITY OF NEW ENGLAND: MARK SPACKMAN
     MIE UNIVERSITY: HIROAKI UMEDA
     MICHIGAN STATE UNIVERSITY:
          KAROL KOWALSKI, MARTA WLOCH, JEFFREY GOUR, JESSE LUTZ,
          WEI LI, PIOTR PIECUCH
     UNIVERSITY OF SILESIA: MONIKA MUSIAL, STANISLAW KUCHARSKI
     FACULTES UNIVERSITAIRES NOTRE-DAME DE LA PAIX:
          OLIVIER QUINET, BENOIT CHAMPAGNE
     UNIVERSITY OF CALIFORNIA - SANTA BARBARA: BERNARD KIRTMAN
     INSTITUTE FOR MOLECULAR SCIENCE:
          KAZUYA ISHIMURA, MICHIO KATOUDA, AND SHIGERU NAGASE
     UNIVERSITY OF NOTRE DAME: DAN CHIPMAN
     KYUSHU UNIVERSITY:
          HARUYUKI NAKANO,
          FENG LONG GU, JACEK KORCHOWIEC, MARCIN MAKOWSKI, AND YURIKO AOKI,
          HIROTOSHI MORI AND EISAKU MIYOSHI
     PENNSYLVANIA STATE UNIVERSITY:
          TZVETELIN IORDANOV, CHET SWALINA, JONATHAN SKONE,
          SHARON HAMMES-SCHIFFER
     WASEDA UNIVERSITY:
          MASATO KOBAYASHI, TOMOKO AKAMA, TSUGUKI TOUMA,
          TAKESHI YOSHIKAWA, YASUHIRO IKABATA, HIROMI NAKAI
     NANJING UNIVERSITY: SHUHUA LI
     UNIVERSITY OF NEBRASKA:
          PEIFENG SU, DEJUN SI, NANDUN THELLAMUREGE, YALI WANG, HUI LI
     UNIVERSITY OF ZURICH:
          ROBERTO PEVERATI, KIM BALDRIDGE
     N. COPERNICUS UNIVERSITY AND JACKSON STATE UNIVERSITY:
          MARIA BARYSZ

 EXECUTION OF GAMESS BEGUN Mon Oct 14 07:30:07 2013

            ECHO OF THE FIRST FEW INPUT CARDS -
 INPUT CARD>! GAMESS/VB2000 Test 24.                                                        
 INPUT CARD>! This run is an example of a VB2000 run for a closed shell case with           
 INPUT CARD>! full localization using $BRILLMASK. The molecule is benzene and the           
 INPUT CARD>! VB structures are the 2 Kekule and 3 Dewar structures. It allows              
 INPUT CARD>! you to also explore several alternative runs by making small chnages          
 INPUT CARD>! to the data.                                                                  
 INPUT CARD>!                                                                               
 INPUT CARD>! The RHF energy is:-                                                           
 INPUT CARD>!                                                                               
 INPUT CARD>! RHF ENERGY IS     -230.1300205664 AFTER   8 ITERATIONS                        
 INPUT CARD>!                                                                               
 INPUT CARD>! The VB final energy is:-                                                      
 INPUT CARD>!                                                                               
 INPUT CARD>! ENERGY AND DIFF OF MACROITER    4 =   -229.99812644     -0.00000000           
 INPUT CARD>!                                                                               
 INPUT CARD>! and the 5 structure weights are:-                                             
 INPUT CARD>!                                                                               
 INPUT CARD>!      2 Kekule            3 Dewar                                              
 INPUT CARD>!  -0.4061 -0.4061  0.1641  0.1641  0.1641                                      
 INPUT CARD>!                                                                               
 INPUT CARD>! The $BRILLMASK command is the original implementation in that it is           
 INPUT CARD>! followed by the number 30 and then 30 conditions for non-mixing.              
 INPUT CARD>! However, since we want strict localisation to atoms here, we can              
 INPUT CARD>! remove all the data after the $BRILLMASK command and the same result          
 INPUT CARD>! is obtained, using a new variant of $BRILLMASK.                               
 INPUT CARD>!                                                                               
 INPUT CARD>! This test also tests the $CENTROID code, which gives all VB orbital           
 INPUT CARD>! centroids and extents by default. Here the $CENTROID option is used           
 INPUT CARD>! to calculate them only for one orbital and then show distances from           
 INPUT CARD>! that atoms and the nighbouring three atoms.                                   
 INPUT CARD>!                                                                               
 INPUT CARD> $CONTRL SCFTYP=RHF RUNTYP=ENERGY COORD=UNIQUE                                  
 INPUT CARD> NOSYM=1 UNITS=BOHR VBTYP=VB2000 $END                                           
 INPUT CARD> $SYSTEM TIMLIM=200000 MEMORY=2000000 $END                                      
 INPUT CARD> $BASIS  GBASIS=STO NGAUSS=6 $END                                               
 INPUT CARD> $GUESS  GUESS=HUCKEL $END                                                      
 INPUT CARD> $DATA                                                                          
 INPUT CARD>C6H6 STO-6G                                                                     
 INPUT CARD>Dnh  6                                                                          
 INPUT CARD>                                                                                
 INPUT CARD>C       6.00    2.642389499    0.000000000    0.000000000                       
 INPUT CARD>H       1.00    4.687413116    0.000000000    0.000000000                       
 INPUT CARD> $END                                                                           
 INPUT CARD> $VB2000                                                                        
 INPUT CARD>#! VB(6)/STO-6G PRINTALL                                                        
 INPUT CARD>                                                                                
 INPUT CARD>Benzene STO-6G test - MP2 geom                                                  
 INPUT CARD>                                                                                
 INPUT CARD>0 1                                                                             
 INPUT CARD>6     1.3211947495        2.2883764328 0.0000000000                             
    2000000 WORDS OF MEMORY AVAILABLE

     BASIS OPTIONS
     -------------
     GBASIS=STO          IGAUSS=       6      POLAR=NONE    
     NDFUNC=       0     NFFUNC=       0     DIFFSP=       F
     NPFUNC=       0      DIFFS=       F     BASNAM=        


     RUN TITLE
     ---------
 C6H6 STO-6G                                                                     

 THE POINT GROUP OF THE MOLECULE IS DNH     
 THE ORDER OF THE PRINCIPAL AXIS IS     6

 ATOM      ATOMIC                      COORDINATES (BOHR)
           CHARGE         X                   Y                   Z
 C           6.0     1.3211947495        2.2883764328        0.0000000000
 C           6.0    -1.3211947495        2.2883764328        0.0000000000
 C           6.0    -2.6423894990        0.0000000000        0.0000000000
 C           6.0    -1.3211947495       -2.2883764328        0.0000000000
 C           6.0     1.3211947495       -2.2883764328        0.0000000000
 C           6.0     2.6423894990        0.0000000000        0.0000000000
 H           1.0     2.3437065580        4.0594188365        0.0000000000
 H           1.0    -2.3437065580        4.0594188365        0.0000000000
 H           1.0    -4.6874131160        0.0000000000        0.0000000000
 H           1.0    -2.3437065580       -4.0594188365        0.0000000000
 H           1.0     2.3437065580       -4.0594188365        0.0000000000
 H           1.0     4.6874131160        0.0000000000        0.0000000000

          INTERNUCLEAR DISTANCES (ANGS.)
          ------------------------------

                1 C          2 C          3 C          4 C          5 C     

   1 C       0.0000000    1.3982924 *  2.4219135 *  2.7965848 *  2.4219135 *
   2 C       1.3982924 *  0.0000000    1.3982924 *  2.4219135 *  2.7965848 *
   3 C       2.4219135 *  1.3982924 *  0.0000000    1.3982924 *  2.4219135 *
   4 C       2.7965848 *  2.4219135 *  1.3982924 *  0.0000000    1.3982924 *
   5 C       2.4219135 *  2.7965848 *  2.4219135 *  1.3982924 *  0.0000000  
   6 C       1.3982924 *  2.4219135 *  2.7965848 *  2.4219135 *  1.3982924 *
   7 H       1.0821800 *  2.1539590 *  3.4024095    3.8787648    3.4024095  
   8 H       2.1539590 *  1.0821800 *  2.1539590 *  3.4024095    3.8787648  
   9 H       3.4024095    2.1539590 *  1.0821800 *  2.1539590 *  3.4024095  
  10 H       3.8787648    3.4024095    2.1539590 *  1.0821800 *  2.1539590 *
  11 H       3.4024095    3.8787648    3.4024095    2.1539590 *  1.0821800 *
  12 H       2.1539590 *  3.4024095    3.8787648    3.4024095    2.1539590 *

                6 C          7 H          8 H          9 H         10 H     

   1 C       1.3982924 *  1.0821800 *  2.1539590 *  3.4024095    3.8787648  
   2 C       2.4219135 *  2.1539590 *  1.0821800 *  2.1539590 *  3.4024095  
   3 C       2.7965848 *  3.4024095    2.1539590 *  1.0821800 *  2.1539590 *
   4 C       2.4219135 *  3.8787648    3.4024095    2.1539590 *  1.0821800 *
   5 C       1.3982924 *  3.4024095    3.8787648    3.4024095    2.1539590 *
   6 C       0.0000000    2.1539590 *  3.4024095    3.8787648    3.4024095  
   7 H       2.1539590 *  0.0000000    2.4804724 *  4.2963042    4.9609448  
   8 H       3.4024095    2.4804724 *  0.0000000    2.4804724 *  4.2963042  
   9 H       3.8787648    4.2963042    2.4804724 *  0.0000000    2.4804724 *
  10 H       3.4024095    4.9609448    4.2963042    2.4804724 *  0.0000000  
  11 H       2.1539590 *  4.2963042    4.9609448    4.2963042    2.4804724 *
  12 H       1.0821800 *  2.4804724 *  4.2963042    4.9609448    4.2963042  

               11 H         12 H     

   1 C       3.4024095    2.1539590 *
   2 C       3.8787648    3.4024095  
   3 C       3.4024095    3.8787648  
   4 C       2.1539590 *  3.4024095  
   5 C       1.0821800 *  2.1539590 *
   6 C       2.1539590 *  1.0821800 *
   7 H       4.2963042    2.4804724 *
   8 H       4.9609448    4.2963042  
   9 H       4.2963042    4.9609448  
  10 H       2.4804724 *  4.2963042  
  11 H       0.0000000    2.4804724 *
  12 H       2.4804724 *  0.0000000  

  * ... LESS THAN  3.000


     ATOMIC BASIS SET
     ----------------
 THE CONTRACTED PRIMITIVE FUNCTIONS HAVE BEEN UNNORMALIZED
 THE CONTRACTED BASIS FUNCTIONS ARE NOW NORMALIZED TO UNITY

  SHELL TYPE  PRIMITIVE        EXPONENT          CONTRACTION COEFFICIENT(S)

 C         

     11   S       1           742.7370491    0.009163596281
     11   S       2           136.1800249    0.049361492943
     11   S       3            38.0982635    0.168538304910
     11   S       4            13.0877818    0.370562799722
     11   S       5             5.0823686    0.416491529825
     11   S       6             2.0932001    0.130334084108

     12   L       7            30.4972395   -0.013252788090    0.003759696623
     12   L       8             6.0361996   -0.046991710139    0.037679369843
     12   L       9             1.8760463   -0.033785371509    0.173896743514
     12   L      10             0.7217826    0.250241786092    0.418036434734
     12   L      11             0.3134707    0.595117252581    0.425859547735
     12   L      12             0.1436866    0.240706176292    0.101708295508

 H         

     18   S      13            35.5232212    0.009163596281
     18   S      14             6.5131437    0.049361492943
     18   S      15             1.8221429    0.168538304910
     18   S      16             0.6259553    0.370562799722
     18   S      17             0.2430767    0.416491529825
     18   S      18             0.1001124    0.130334084108

 TOTAL NUMBER OF BASIS SET SHELLS             =   18
 NUMBER OF CARTESIAN GAUSSIAN BASIS FUNCTIONS =   36
 NUMBER OF ELECTRONS                          =   42
 CHARGE OF MOLECULE                           =    0
 SPIN MULTIPLICITY                            =    1
 NUMBER OF OCCUPIED ORBITALS (ALPHA)          =   21
 NUMBER OF OCCUPIED ORBITALS (BETA )          =   21
 TOTAL NUMBER OF ATOMS                        =   12
 THE NUCLEAR REPULSION ENERGY IS      203.1163745651

     $CONTRL OPTIONS
     ---------------
 SCFTYP=RHF          RUNTYP=ENERGY       EXETYP=RUN     
 MPLEVL=       0     CITYP =NONE         CCTYP =NONE         VBTYP =VB2000  
 DFTTYP=NONE         TDDFT =NONE    
 MULT  =       1     ICHARG=       0     NZVAR =       0     COORD =UNIQUE  
 PP    =NONE         RELWFN=NONE         LOCAL =NONE         NUMGRD=       F
 ISPHER=      -1     NOSYM =       1     MAXIT =      30     UNITS =BOHR    
 PLTORB=       F     MOLPLT=       F     AIMPAC=       F     FRIEND=        
 NPRINT=       7     IREST =       0     GEOM  =INPUT   
 NORMF =       0     NORMP =       0     ITOL  =      20     ICUT  =       9
 INTTYP=BEST         GRDTYP=BEST         QMTTOL= 1.0E-06

     $SYSTEM OPTIONS
     ---------------
  REPLICATED MEMORY=     2000000 WORDS (ON EVERY NODE).
 DISTRIBUTED MEMDDI=           0 MILLION WORDS IN AGGREGATE,
 MEMDDI DISTRIBUTED OVER   1 PROCESSORS IS           0 WORDS/PROCESSOR.
 TOTAL MEMORY REQUESTED ON EACH PROCESSOR=     2000000 WORDS.
 TIMLIM=      200000.00 MINUTES, OR     138.9 DAYS.
 PARALL= F  BALTYP=  DLB     KDIAG=    0  COREFL= F
 MXSEQ2=     300 MXSEQ3=     150

          ----------------
          PROPERTIES INPUT
          ----------------

     MOMENTS            FIELD           POTENTIAL          DENSITY
 IEMOM =       1   IEFLD =       0   IEPOT =       0   IEDEN =       0
 WHERE =COMASS     WHERE =NUCLEI     WHERE =NUCLEI     WHERE =NUCLEI  
 OUTPUT=BOTH       OUTPUT=BOTH       OUTPUT=BOTH       OUTPUT=BOTH    
 IEMINT=       0   IEFINT=       0                     IEDINT=       0
                                                       MORB  =       0
          EXTRAPOLATION IN EFFECT
          SOSCF IN EFFECT
 ORBITAL PRINTING OPTION: NPREO=     1    36     2     1

     -------------------------------
     INTEGRAL TRANSFORMATION OPTIONS
     -------------------------------
     NWORD  =            0
     CUTOFF = 1.0E-09     MPTRAN =       0
     DIRTRF =       F     AOINTS =DUP     

          ----------------------
          INTEGRAL INPUT OPTIONS
          ----------------------
 NOPK  =       1 NORDER=       0 SCHWRZ=       T

     ------------------------------------------
     THE POINT GROUP IS C1 , NAXIS= 1, ORDER= 1
     ------------------------------------------

     DIMENSIONS OF THE SYMMETRY SUBSPACES ARE
 A   =   36

 ..... DONE SETTING UP THE RUN .....
 STEP CPU TIME =     0.00 TOTAL CPU TIME =        0.0 (    0.0 MIN)
 TOTAL WALL CLOCK TIME=        0.0 SECONDS, CPU UTILIZATION IS   0.00%

          ********************
          1 ELECTRON INTEGRALS
          ********************
 ...... END OF ONE-ELECTRON INTEGRALS ......
 STEP CPU TIME =     0.01 TOTAL CPU TIME =        0.0 (    0.0 MIN)
 TOTAL WALL CLOCK TIME=        0.0 SECONDS, CPU UTILIZATION IS  50.00%

          -------------
          GUESS OPTIONS
          -------------
          GUESS =HUCKEL            NORB  =       0          NORDER=       0
          MIX   =       F          PRTMO =       F          PUNMO =       F
          TOLZ  = 1.0E-08          TOLE  = 1.0E-05
          SYMDEN=       F          PURIFY=       F

 INITIAL GUESS ORBITALS GENERATED BY HUCKEL   ROUTINE.
 HUCKEL GUESS REQUIRES     22584 WORDS.

 SYMMETRIES FOR INITIAL GUESS ORBITALS FOLLOW.   BOTH SET(S).
    21 ORBITALS ARE OCCUPIED (    6 CORE ORBITALS).
     7=A        8=A        9=A       10=A       11=A       12=A       13=A   
    14=A       15=A       16=A       17=A       18=A       19=A       20=A   
    21=A       22=A       23=A       24=A       25=A       26=A       27=A   
    28=A       29=A       30=A       31=A   
 ...... END OF INITIAL ORBITAL SELECTION ......
 STEP CPU TIME =     0.00 TOTAL CPU TIME =        0.0 (    0.0 MIN)
 TOTAL WALL CLOCK TIME=        0.0 SECONDS, CPU UTILIZATION IS  50.00%

                    ----------------------
                    AO INTEGRAL TECHNOLOGY
                    ----------------------
     S,P,L SHELL ROTATED AXIS INTEGRALS, REPROGRAMMED BY
        KAZUYA ISHIMURA (IMS) AND JOSE SIERRA (SYNSTAR).
     S,P,D,L SHELL ROTATED AXIS INTEGRALS PROGRAMMED BY
        KAZUYA ISHIMURA (INSTITUTE FOR MOLECULAR SCIENCE).
     S,P,D,F,G SHELL TO TOTAL QUARTET ANGULAR MOMENTUM SUM 5,
        ERIC PROGRAM BY GRAHAM FLETCHER (ELORET AND NASA ADVANCED
        SUPERCOMPUTING DIVISION, AMES RESEARCH CENTER).
     S,P,D,F,G,L SHELL GENERAL RYS QUADRATURE PROGRAMMED BY
        MICHEL DUPUIS (PACIFIC NORTHWEST NATIONAL LABORATORY).

          --------------------
          2 ELECTRON INTEGRALS
          --------------------

 THE -PK- OPTION IS OFF, THE INTEGRALS ARE NOT IN SUPERMATRIX FORM.
 STORING   15000 INTEGRALS/RECORD ON DISK, USING 12 BYTES/INTEGRAL.
 TWO ELECTRON INTEGRAL EVALUATION REQUIRES   89527 WORDS OF MEMORY.
 SCHWARZ INEQUALITY OVERHEAD:       666 INTEGRALS, T=        0.00
 II,JST,KST,LST =  1  1  1  1 NREC =         1 INTLOC =    1
 II,JST,KST,LST =  2  1  1  1 NREC =         1 INTLOC =    2
 II,JST,KST,LST =  3  1  1  1 NREC =         1 INTLOC =   34
 II,JST,KST,LST =  4  1  1  1 NREC =         1 INTLOC =   83
 II,JST,KST,LST =  5  1  1  1 NREC =         1 INTLOC =  512
 II,JST,KST,LST =  6  1  1  1 NREC =         1 INTLOC =  893
 II,JST,KST,LST =  7  1  1  1 NREC =         1 INTLOC = 3701
 II,JST,KST,LST =  8  1  1  1 NREC =         1 INTLOC = 4761
 II,JST,KST,LST =  9  1  1  1 NREC =         1 INTLOC =11535
 II,JST,KST,LST = 10  1  1  1 NREC =         1 INTLOC =13824
 II,JST,KST,LST = 11  1  1  1 NREC =         2 INTLOC =12537
 II,JST,KST,LST = 12  1  1  1 NREC =         3 INTLOC = 2063
 II,JST,KST,LST = 13  1  1  1 NREC =         4 INTLOC =12086
 II,JST,KST,LST = 14  1  1  1 NREC =         5 INTLOC = 6074
 II,JST,KST,LST = 15  1  1  1 NREC =         6 INTLOC = 1086
 II,JST,KST,LST = 16  1  1  1 NREC =         6 INTLOC =12029
 II,JST,KST,LST = 17  1  1  1 NREC =         7 INTLOC = 9310
 II,JST,KST,LST = 18  1  1  1 NREC =         8 INTLOC = 7857
 SCHWARZ INEQUALITY TEST SKIPPED        1524 INTEGRAL BLOCKS.
 TOTAL NUMBER OF NONZERO TWO-ELECTRON INTEGRALS =              127554
          9 INTEGRAL RECORDS WERE STORED ON DISK FILE  8.
  ...... END OF TWO-ELECTRON INTEGRALS .....
 STEP CPU TIME =     0.29 TOTAL CPU TIME =        0.3 (    0.0 MIN)
 TOTAL WALL CLOCK TIME=        0.3 SECONDS, CPU UTILIZATION IS 100.00%

          --------------------------
                 RHF SCF CALCULATION
          --------------------------

     NUCLEAR ENERGY =       203.1163745651
     MAXIT =   30     NPUNCH=    2
     EXTRAP=T  DAMP=F  SHIFT=F  RSTRCT=F  DIIS=F  DEM=F  SOSCF=T
     DENSITY MATRIX CONV=  1.00E-05
     SOSCF WILL OPTIMIZE     315 ORBITAL ROTATIONS, SOGTOL=   0.250
     MEMORY REQUIRED FOR RHF ITERS=     40836 WORDS.

 ITER EX DEM     TOTAL ENERGY        E CHANGE  DENSITY CHANGE     ORB. GRAD
   1  0  0     -229.9565300084  -229.9565300084   0.174765167   0.000000000
          ---------------START SECOND ORDER SCF---------------
   2  1  0     -230.1267803572    -0.1702503488   0.033235569   0.017472466
   3  2  0     -230.1298389657    -0.0030586085   0.011884259   0.004519567
   4  3  0     -230.1300201652    -0.0001811995   0.000195175   0.000362285
   5  4  0     -230.1300205548    -0.0000003896   0.000038271   0.000035810
   6  5  0     -230.1300205663    -0.0000000116   0.000003665   0.000004213
   7  6  0     -230.1300205664    -0.0000000001   0.000000788   0.000000748
   8  7  0     -230.1300205664    -0.0000000000   0.000000028   0.000000037

          -----------------
          DENSITY CONVERGED
          -----------------
     TIME TO FORM FOCK OPERATORS=       0.0 SECONDS (       0.0 SEC/ITER)
     TIME TO SOLVE SCF EQUATIONS=       0.0 SECONDS (       0.0 SEC/ITER)

 FINAL RHF ENERGY IS     -230.1300205664 AFTER   8 ITERATIONS

          ------------
          EIGENVECTORS
          ------------

                      1          2          3          4          5
                  -11.1802   -11.1800   -11.1800   -11.1793   -11.1793
                     A          A          A          A          A   
    1  C  1  S    0.406514  -0.282431  -0.500535  -0.283123   0.499898
    2  C  1  S    0.005813  -0.005303  -0.009399  -0.007793   0.013760
    3  C  1  X    0.000507   0.001843  -0.001262  -0.001607  -0.001628
    4  C  1  Y    0.000878  -0.001284   0.000339   0.001638  -0.000315
    5  C  1  Z   -0.000000  -0.000000   0.000000   0.000000  -0.000000
    6  C  2  S    0.406514   0.292260  -0.494860  -0.291363  -0.495141
    7  C  2  S    0.005813   0.005488  -0.009292  -0.008020  -0.013629
    8  C  2  X   -0.000507   0.001817   0.001298   0.001579  -0.001654
    9  C  2  Y    0.000878   0.001277   0.000364   0.001643   0.000288
   10  C  2  Z   -0.000000  -0.000000   0.000000   0.000000  -0.000000
   11  C  3  S    0.406514   0.574691   0.005675   0.574486  -0.004758
   12  C  3  S    0.005813   0.010791   0.000107   0.015813  -0.000131
   13  C  3  X   -0.001013  -0.000387  -0.000004   0.001249  -0.000010
   14  C  3  Y   -0.000000  -0.000025   0.002569   0.000021   0.002540
   15  C  3  Z   -0.000000  -0.000000   0.000000   0.000000  -0.000000
   16  C  4  S    0.406514   0.282431   0.500535  -0.283123   0.499898
   17  C  4  S    0.005813   0.005303   0.009399  -0.007793   0.013760
   18  C  4  X   -0.000507   0.001843  -0.001262   0.001607   0.001628
   19  C  4  Y   -0.000878  -0.001284   0.000339  -0.001638   0.000315
   20  C  4  Z   -0.000000  -0.000000   0.000000   0.000000  -0.000000
   21  C  5  S    0.406514  -0.292260   0.494860  -0.291363  -0.495141
   22  C  5  S    0.005813  -0.005488   0.009292  -0.008020  -0.013629
   23  C  5  X    0.000507   0.001817   0.001298  -0.001579   0.001654
   24  C  5  Y   -0.000878   0.001277   0.000364  -0.001643  -0.000288
   25  C  5  Z   -0.000000  -0.000000   0.000000   0.000000  -0.000000
   26  C  6  S    0.406514  -0.574691  -0.005675   0.574486  -0.004758
   27  C  6  S    0.005813  -0.010791  -0.000107   0.015813  -0.000131
   28  C  6  X    0.001013  -0.000387  -0.000004  -0.001249   0.000010
   29  C  6  Y    0.000000  -0.000025   0.002569  -0.000021  -0.002540
   30  C  6  Z   -0.000000  -0.000000   0.000000   0.000000  -0.000000
   31  H  7  S   -0.001867   0.001245   0.002207   0.001244  -0.002196
   32  H  8  S   -0.001867  -0.001289   0.002182   0.001280   0.002175
   33  H  9  S   -0.001867  -0.002534  -0.000025  -0.002524   0.000021
   34  H 10  S   -0.001867  -0.001245  -0.002207   0.001244  -0.002196
   35  H 11  S   -0.001867   0.001289  -0.002182   0.001280   0.002175
   36  H 12  S   -0.001867   0.002534   0.000025  -0.002524   0.000021

                      6          7          8          9         10
                  -11.1790    -1.0886    -0.9559    -0.9559    -0.7692
                     A          A          A          A          A   
    1  C  1  S    0.406154  -0.100431  -0.069425  -0.122056   0.054844
    2  C  1  S    0.013183   0.264134   0.196052   0.344676  -0.167237
    3  C  1  X   -0.000845  -0.030382   0.091887  -0.067552   0.151046
    4  C  1  Y   -0.001464  -0.052624  -0.068223   0.012327  -0.137729
    5  C  1  Z    0.000000  -0.000000   0.000000   0.000000  -0.000000
    6  C  2  S   -0.406154  -0.100431   0.070991  -0.121152   0.055037
    7  C  2  S   -0.013183   0.264134  -0.200473   0.342124  -0.167826
    8  C  2  X   -0.000845   0.030382   0.091010   0.068730  -0.150766
    9  C  2  Y    0.001464  -0.052624   0.068059   0.013204  -0.137745
   10  C  2  Z    0.000000  -0.000000   0.000000   0.000000  -0.000000
   11  C  3  S    0.406154  -0.100431   0.140416   0.000904  -0.109881
   12  C  3  S    0.013183   0.264134  -0.396524  -0.002553   0.335062
   13  C  3  X    0.001690   0.060765  -0.026576  -0.000171  -0.087662
   14  C  3  Y   -0.000000   0.000000  -0.000842   0.130789  -0.000234
   15  C  3  Z    0.000000  -0.000000   0.000000   0.000000  -0.000000
   16  C  4  S   -0.406154  -0.100431   0.069425   0.122056   0.054844
   17  C  4  S   -0.013183   0.264134  -0.196052  -0.344676  -0.167237
   18  C  4  X   -0.000845   0.030382   0.091887  -0.067552  -0.151046
   19  C  4  Y   -0.001464   0.052624  -0.068223   0.012327   0.137729
   20  C  4  Z    0.000000  -0.000000   0.000000   0.000000  -0.000000
   21  C  5  S    0.406154  -0.100431  -0.070991   0.121152   0.055037
   22  C  5  S    0.013183   0.264134   0.200473  -0.342124  -0.167826
   23  C  5  X   -0.000845  -0.030382   0.091010   0.068730   0.150766
   24  C  5  Y    0.001464   0.052624   0.068059   0.013204   0.137745
   25  C  5  Z    0.000000  -0.000000   0.000000   0.000000  -0.000000
   26  C  6  S   -0.406154  -0.100431  -0.140416  -0.000904  -0.109881
   27  C  6  S   -0.013183   0.264134   0.396524   0.002553   0.335062
   28  C  6  X    0.001690  -0.060765  -0.026576  -0.000171   0.087662
   29  C  6  Y   -0.000000  -0.000000  -0.000842   0.130789   0.000234
   30  C  6  Z    0.000000  -0.000000   0.000000   0.000000  -0.000000
   31  H  7  S   -0.001759   0.046497   0.053946   0.094842  -0.090668
   32  H  8  S    0.001759   0.046497  -0.055162   0.094139  -0.090987
   33  H  9  S   -0.001759   0.046497  -0.109108  -0.000702   0.181655
   34  H 10  S    0.001759   0.046497  -0.053946  -0.094842  -0.090668
   35  H 11  S   -0.001759   0.046497   0.055162  -0.094139  -0.090987
   36  H 12  S    0.001759   0.046497   0.109108   0.000702   0.181655

                     11         12         13         14         15
                   -0.7692    -0.6631    -0.5996    -0.5531    -0.5358
                     A          A          A          A          A   
    1  C  1  S   -0.095216  -0.007432   0.062499   0.000000   0.012433
    2  C  1  S    0.290342   0.033694  -0.213414  -0.000000  -0.041391
    3  C  1  X    0.137584   0.117794  -0.083314   0.286715   0.009896
    4  C  1  Y    0.008279   0.204025  -0.144304  -0.165535   0.197817
    5  C  1  Z   -0.000000   0.000000   0.000000  -0.000000  -0.000000
    6  C  2  S    0.095104  -0.007432  -0.062499  -0.000000  -0.013475
    7  C  2  S   -0.290002   0.033694   0.213414   0.000000   0.044859
    8  C  2  X    0.137890  -0.117794  -0.083314  -0.286715   0.019350
    9  C  2  Y   -0.007999   0.204025   0.144304  -0.165535  -0.209412
   10  C  2  Z   -0.000000   0.000000   0.000000  -0.000000  -0.000000
   11  C  3  S    0.000112  -0.007432   0.062499   0.000000  -0.025908
   12  C  3  S   -0.000340   0.033694  -0.213414  -0.000000   0.086249
   13  C  3  X    0.000089  -0.235588   0.166628   0.000000   0.367294
   14  C  3  Y   -0.230428   0.000000  -0.000000   0.331071   0.002390
   15  C  3  Z   -0.000000   0.000000   0.000000  -0.000000  -0.000000
   16  C  4  S   -0.095216  -0.007432  -0.062499  -0.000000  -0.012433
   17  C  4  S    0.290342   0.033694   0.213414   0.000000   0.041391
   18  C  4  X   -0.137584  -0.117794  -0.083314   0.286715   0.009896
   19  C  4  Y   -0.008279  -0.204025  -0.144304  -0.165535   0.197817
   20  C  4  Z   -0.000000   0.000000   0.000000  -0.000000  -0.000000
   21  C  5  S    0.095104  -0.007432   0.062499   0.000000   0.013475
   22  C  5  S   -0.290002   0.033694  -0.213414  -0.000000  -0.044859
   23  C  5  X   -0.137890   0.117794  -0.083314  -0.286715   0.019350
   24  C  5  Y    0.007999  -0.204025   0.144304  -0.165535  -0.209412
   25  C  5  Z   -0.000000   0.000000   0.000000  -0.000000  -0.000000
   26  C  6  S    0.000112  -0.007432  -0.062499  -0.000000   0.025908
   27  C  6  S   -0.000340   0.033694   0.213414   0.000000  -0.086249
   28  C  6  X   -0.000089   0.235588   0.166628   0.000000   0.367294
   29  C  6  Y    0.230428  -0.000000  -0.000000   0.331071   0.002390
   30  C  6  Z   -0.000000   0.000000   0.000000  -0.000000  -0.000000
   31  H  7  S    0.157410   0.175158  -0.233135  -0.000000   0.135604
   32  H  8  S   -0.157226   0.175158   0.233135   0.000000  -0.146966
   33  H  9  S   -0.000184   0.175158  -0.233135  -0.000000  -0.282570
   34  H 10  S    0.157410   0.175158   0.233135   0.000000  -0.135604
   35  H 11  S   -0.157226   0.175158  -0.233135  -0.000000   0.146966
   36  H 12  S   -0.000184   0.175158   0.233135   0.000000   0.282570

                     16         17         18         19         20
                   -0.5358    -0.4558    -0.4360    -0.4360    -0.2817
                     A          A          A          A          A   
    1  C  1  S    0.022738   0.000000  -0.004205  -0.007229  -0.000000
    2  C  1  S   -0.075695   0.000000   0.009934   0.017078  -0.000000
    3  C  1  X    0.203954   0.000000  -0.320039   0.023789  -0.000000
    4  C  1  Y    0.254464   0.000000   0.021793  -0.293919  -0.000000
    5  C  1  Z   -0.000000   0.334754   0.000000   0.000000   0.531939
    6  C  2  S    0.022137   0.000000  -0.004158   0.007256  -0.000000
    7  C  2  S   -0.073693   0.000000   0.009823  -0.017142  -0.000000
    8  C  2  X   -0.203275   0.000000   0.320187   0.021708  -0.000000
    9  C  2  Y    0.245010   0.000000   0.023704   0.293771  -0.000000
   10  C  2  Z   -0.000000   0.334754   0.000000   0.000000   0.277162
   11  C  3  S   -0.000601   0.000000   0.008363  -0.000027  -0.000000
   12  C  3  S    0.002002   0.000000  -0.019757   0.000064  -0.000000
   13  C  3  X    0.008527   0.000000  -0.280711   0.000913  -0.000000
   14  C  3  Y   -0.102934   0.000000  -0.001084  -0.333247  -0.000000
   15  C  3  Z   -0.000000   0.334754   0.000000   0.000000  -0.254778
   16  C  4  S   -0.022738   0.000000  -0.004205  -0.007229  -0.000000
   17  C  4  S    0.075695   0.000000   0.009934   0.017078  -0.000000
   18  C  4  X    0.203954   0.000000   0.320039  -0.023789  -0.000000
   19  C  4  Y    0.254464   0.000000  -0.021793   0.293919  -0.000000
   20  C  4  Z   -0.000000   0.334754   0.000000   0.000000  -0.531939
   21  C  5  S   -0.022137   0.000000  -0.004158   0.007256  -0.000000
   22  C  5  S    0.073693   0.000000   0.009823  -0.017142  -0.000000
   23  C  5  X   -0.203275   0.000000  -0.320187  -0.021708  -0.000000
   24  C  5  Y    0.245010   0.000000  -0.023704  -0.293771  -0.000000
   25  C  5  Z   -0.000000   0.334754   0.000000   0.000000  -0.277162
   26  C  6  S    0.000601   0.000000   0.008363  -0.000027  -0.000000
   27  C  6  S   -0.002002   0.000000  -0.019757   0.000064  -0.000000
   28  C  6  X    0.008527   0.000000   0.280711  -0.000913  -0.000000
   29  C  6  Y   -0.102934   0.000000   0.001084   0.333247  -0.000000
   30  C  6  Z   -0.000000   0.334754   0.000000   0.000000   0.254778
   31  H  7  S    0.247993   0.000000  -0.148453  -0.255208  -0.000000
   32  H  8  S    0.241433   0.000000  -0.146790   0.256168  -0.000000
   33  H  9  S   -0.006560   0.000000   0.295244  -0.000960  -0.000000
   34  H 10  S   -0.247993   0.000000  -0.148453  -0.255208  -0.000000
   35  H 11  S   -0.241433   0.000000  -0.146790   0.256168  -0.000000
   36  H 12  S    0.006560   0.000000   0.295244  -0.000960  -0.000000

                     21         22         23         24         25
                   -0.2817     0.2607     0.2607     0.4911     0.5760
                     A          A          A          A          A   
    1  C  1  S   -0.000000   0.000000  -0.000000   0.000000   0.048007
    2  C  1  S   -0.000000   0.000000  -0.000000   0.000000  -0.334546
    3  C  1  X   -0.000000   0.000000  -0.000000   0.000000  -0.158494
    4  C  1  Y   -0.000000   0.000000  -0.000000   0.000000  -0.274519
    5  C  1  Z   -0.012924  -0.558777  -0.345618   0.521129  -0.000000
    6  C  2  S   -0.000000   0.000000  -0.000000   0.000000   0.048007
    7  C  2  S   -0.000000   0.000000  -0.000000   0.000000  -0.334546
    8  C  2  X   -0.000000   0.000000  -0.000000   0.000000   0.158494
    9  C  2  Y   -0.000000   0.000000  -0.000000   0.000000  -0.274519
   10  C  2  Z    0.454211   0.578703  -0.311106  -0.521129  -0.000000
   11  C  3  S   -0.000000   0.000000  -0.000000   0.000000   0.048007
   12  C  3  S   -0.000000   0.000000  -0.000000   0.000000  -0.334546
   13  C  3  X   -0.000000   0.000000  -0.000000   0.000000   0.316988
   14  C  3  Y   -0.000000   0.000000  -0.000000   0.000000  -0.000000
   15  C  3  Z    0.467135  -0.019925   0.656724   0.521129  -0.000000
   16  C  4  S   -0.000000   0.000000  -0.000000   0.000000   0.048007
   17  C  4  S   -0.000000   0.000000  -0.000000   0.000000  -0.334546
   18  C  4  X   -0.000000   0.000000  -0.000000   0.000000   0.158494
   19  C  4  Y   -0.000000   0.000000  -0.000000   0.000000   0.274519
   20  C  4  Z    0.012924  -0.558777  -0.345618  -0.521129  -0.000000
   21  C  5  S   -0.000000   0.000000  -0.000000   0.000000   0.048007
   22  C  5  S   -0.000000   0.000000  -0.000000   0.000000  -0.334546
   23  C  5  X   -0.000000   0.000000  -0.000000   0.000000  -0.158494
   24  C  5  Y   -0.000000   0.000000  -0.000000   0.000000   0.274519
   25  C  5  Z   -0.454211   0.578703  -0.311106   0.521129  -0.000000
   26  C  6  S   -0.000000   0.000000  -0.000000   0.000000   0.048007
   27  C  6  S   -0.000000   0.000000  -0.000000   0.000000  -0.334546
   28  C  6  X   -0.000000   0.000000  -0.000000   0.000000  -0.316988
   29  C  6  Y   -0.000000   0.000000  -0.000000   0.000000   0.000000
   30  C  6  Z   -0.467135  -0.019925   0.656724  -0.521129  -0.000000
   31  H  7  S   -0.000000   0.000000  -0.000000   0.000000   0.512669
   32  H  8  S   -0.000000   0.000000  -0.000000   0.000000   0.512669
   33  H  9  S   -0.000000   0.000000  -0.000000   0.000000   0.512669
   34  H 10  S   -0.000000   0.000000  -0.000000   0.000000   0.512669
   35  H 11  S   -0.000000   0.000000  -0.000000   0.000000   0.512669
   36  H 12  S   -0.000000   0.000000  -0.000000   0.000000   0.512669

                     26         27         28         29         30
                    0.6433     0.6433     0.7135     0.7223     0.7223
                     A          A          A          A          A   
    1  C  1  S   -0.012797   0.023165   0.111460   0.129655   0.075082
    2  C  1  S    0.090243  -0.163357  -0.747884  -0.909390  -0.526615
    3  C  1  X    0.389780  -0.100180  -0.029481   0.218558  -0.309204
    4  C  1  Y    0.083359  -0.500421  -0.051063  -0.057867   0.218081
    5  C  1  Z    0.000000   0.000000  -0.000000  -0.000000   0.000000
    6  C  2  S    0.013663   0.022665  -0.111460  -0.129850   0.074744
    7  C  2  S   -0.096350  -0.159831   0.747884   0.910757  -0.524247
    8  C  2  X    0.393286   0.085384  -0.029481   0.217753   0.309772
    9  C  2  Y   -0.102205  -0.496915   0.051063   0.057300   0.218231
   10  C  2  Z    0.000000   0.000000  -0.000000  -0.000000   0.000000
   11  C  3  S    0.026460  -0.000500   0.111460   0.000195  -0.149826
   12  C  3  S   -0.186593   0.003526  -0.747884  -0.001367   1.050862
   13  C  3  X    0.552236  -0.010435   0.058962  -0.000089   0.068369
   14  C  3  Y   -0.006386  -0.337965   0.000000  -0.435440  -0.000566
   15  C  3  Z    0.000000   0.000000  -0.000000  -0.000000   0.000000
   16  C  4  S    0.012797  -0.023165  -0.111460   0.129655   0.075082
   17  C  4  S   -0.090243   0.163357   0.747884  -0.909390  -0.526615
   18  C  4  X    0.389780  -0.100180  -0.029481  -0.218558   0.309204
   19  C  4  Y    0.083359  -0.500421  -0.051063   0.057867  -0.218081
   20  C  4  Z    0.000000   0.000000  -0.000000  -0.000000   0.000000
   21  C  5  S   -0.013663  -0.022665   0.111460  -0.129850   0.074744
   22  C  5  S    0.096350   0.159831  -0.747884   0.910757  -0.524247
   23  C  5  X    0.393286   0.085384  -0.029481  -0.217753  -0.309772
   24  C  5  Y   -0.102205  -0.496915   0.051063  -0.057300  -0.218231
   25  C  5  Z    0.000000   0.000000  -0.000000  -0.000000   0.000000
   26  C  6  S   -0.026460   0.000500  -0.111460   0.000195  -0.149826
   27  C  6  S    0.186593  -0.003526   0.747884  -0.001367   1.050862
   28  C  6  X    0.552236  -0.010435   0.058962   0.000089  -0.068369
   29  C  6  Y   -0.006386  -0.337965   0.000000   0.435440   0.000566
   30  C  6  Z    0.000000   0.000000  -0.000000  -0.000000   0.000000
   31  H  7  S   -0.313620   0.567712   0.443359   0.386548   0.223844
   32  H  8  S    0.334843   0.555459  -0.443359  -0.387129   0.222838
   33  H  9  S    0.648463  -0.012253   0.443359   0.000581  -0.446683
   34  H 10  S    0.313620  -0.567712  -0.443359   0.386548   0.223844
   35  H 11  S   -0.334843  -0.555459   0.443359  -0.387129   0.222838
   36  H 12  S   -0.648463   0.012253  -0.443359   0.000581  -0.446683

                     31         32         33         34         35
                    0.8736     0.8736     0.8791     0.8791     1.0642
                     A          A          A          A          A   
    1  C  1  S    0.017043   0.009152   0.074921   0.043107   0.000000
    2  C  1  S   -0.138555  -0.074400  -0.599162  -0.344738  -0.000000
    3  C  1  X    0.441821   0.029805  -0.395278   0.603020  -0.657049
    4  C  1  Y    0.565586   0.423469   0.144378  -0.396390   0.379348
    5  C  1  Z   -0.000000  -0.000000   0.000000   0.000000  -0.000000
    6  C  2  S   -0.016447   0.010184   0.074792  -0.043330  -0.000000
    7  C  2  S    0.133710  -0.082792  -0.598133   0.346521   0.000000
    8  C  2  X    0.439146  -0.056960   0.397071   0.601841  -0.657049
    9  C  2  Y   -0.538432   0.457498   0.145557   0.395959  -0.379348
   10  C  2  Z   -0.000000  -0.000000   0.000000   0.000000  -0.000000
   11  C  3  S   -0.000596  -0.019335  -0.000129  -0.086437  -0.000000
   12  C  3  S    0.004845   0.157192   0.001029   0.691259   0.000000
   13  C  3  X    0.024854   0.806322  -0.000125  -0.083764  -0.000000
   14  C  3  Y   -0.210931   0.006502   0.831162  -0.001237  -0.758695
   15  C  3  Z   -0.000000  -0.000000   0.000000   0.000000  -0.000000
   16  C  4  S    0.017043   0.009152  -0.074921  -0.043107   0.000000
   17  C  4  S   -0.138555  -0.074400   0.599162   0.344738  -0.000000
   18  C  4  X   -0.441821  -0.029805  -0.395278   0.603020   0.657049
   19  C  4  Y   -0.565586  -0.423469   0.144378  -0.396390  -0.379348
   20  C  4  Z   -0.000000  -0.000000   0.000000   0.000000  -0.000000
   21  C  5  S   -0.016447   0.010184  -0.074792   0.043330  -0.000000
   22  C  5  S    0.133710  -0.082792   0.598133  -0.346521   0.000000
   23  C  5  X   -0.439146   0.056960   0.397071   0.601841   0.657049
   24  C  5  Y    0.538432  -0.457498   0.145557   0.395959   0.379348
   25  C  5  Z   -0.000000  -0.000000   0.000000   0.000000  -0.000000
   26  C  6  S   -0.000596  -0.019335   0.000129   0.086437  -0.000000
   27  C  6  S    0.004845   0.157192  -0.001029  -0.691259   0.000000
   28  C  6  X   -0.024854  -0.806322  -0.000125  -0.083764   0.000000
   29  C  6  Y    0.210931  -0.006502   0.831162  -0.001237   0.758695
   30  C  6  Z   -0.000000  -0.000000   0.000000   0.000000  -0.000000
   31  H  7  S   -0.508191  -0.272884   0.279291   0.160695  -0.000000
   32  H  8  S    0.490420  -0.303664   0.278811  -0.161526   0.000000
   33  H  9  S    0.017771   0.576548  -0.000480  -0.322220  -0.000000
   34  H 10  S   -0.508191  -0.272884  -0.279291  -0.160695  -0.000000
   35  H 11  S    0.490420  -0.303664  -0.278811   0.161526   0.000000
   36  H 12  S    0.017771   0.576548   0.000480   0.322220  -0.000000

                     36
                    1.1331
                     A   
    1  C  1  S   -0.054300
    2  C  1  S    0.447675
    3  C  1  X   -0.339597
    4  C  1  Y   -0.588199
    5  C  1  Z    0.000000
    6  C  2  S    0.054300
    7  C  2  S   -0.447675
    8  C  2  X   -0.339597
    9  C  2  Y    0.588199
   10  C  2  Z    0.000000
   11  C  3  S   -0.054300
   12  C  3  S    0.447675
   13  C  3  X    0.679194
   14  C  3  Y   -0.000000
   15  C  3  Z    0.000000
   16  C  4  S    0.054300
   17  C  4  S   -0.447675
   18  C  4  X   -0.339597
   19  C  4  Y   -0.588199
   20  C  4  Z    0.000000
   21  C  5  S   -0.054300
   22  C  5  S    0.447675
   23  C  5  X   -0.339597
   24  C  5  Y    0.588199
   25  C  5  Z    0.000000
   26  C  6  S    0.054300
   27  C  6  S   -0.447675
   28  C  6  X    0.679194
   29  C  6  Y   -0.000000
   30  C  6  Z    0.000000
   31  H  7  S    0.289640
   32  H  8  S   -0.289640
   33  H  9  S    0.289640
   34  H 10  S   -0.289640
   35  H 11  S    0.289640
   36  H 12  S   -0.289640
 ...... END OF RHF CALCULATION ......
 STEP CPU TIME =     0.01 TOTAL CPU TIME =        0.3 (    0.0 MIN)
 TOTAL WALL CLOCK TIME=        0.3 SECONDS, CPU UTILIZATION IS  96.88%

     ----------------------------------------------------------------
     PROPERTY VALUES FOR THE RHF   SELF-CONSISTENT FIELD WAVEFUNCTION
     ----------------------------------------------------------------

          -----------------
          ENERGY COMPONENTS
          -----------------

         WAVEFUNCTION NORMALIZATION =       1.0000000000

                ONE ELECTRON ENERGY =    -713.7026035365
                TWO ELECTRON ENERGY =     280.4562084049
           NUCLEAR REPULSION ENERGY =     203.1163745651
                                      ------------------
                       TOTAL ENERGY =    -230.1300205664

 ELECTRON-ELECTRON POTENTIAL ENERGY =     280.4562084049
  NUCLEUS-ELECTRON POTENTIAL ENERGY =    -943.5582241120
   NUCLEUS-NUCLEUS POTENTIAL ENERGY =     203.1163745651
                                      ------------------
             TOTAL POTENTIAL ENERGY =    -459.9856411420
               TOTAL KINETIC ENERGY =     229.8556205755
                 VIRIAL RATIO (V/T) =       2.0011937928

  ...... PI ENERGY ANALYSIS ......

 ENERGY ANALYSIS:
            FOCK ENERGY=   -152.7901867253
          BARE H ENERGY=   -713.7026035365
     ELECTRONIC ENERGY =   -433.2463951309
         KINETIC ENERGY=    229.8556205755
          N-N REPULSION=    203.1163745651
           TOTAL ENERGY=   -230.1300205658
        SIGMA PART(1+2)=   -393.4107695258
               (K,V1,2)=    222.3733431627   -858.4429460402    242.6588333517
           PI PART(1+2)=    -39.8356256051
               (K,V1,2)=      7.4822774128    -85.1152780718     37.7973750539
  SIGMA SKELETON, ERROR=   -190.2943949607      0.0000000000
             MIXED PART= 0.00000E+00 0.00000E+00 0.00000E+00 0.00000E+00
 ...... END OF PI ENERGY ANALYSIS ......

          ---------------------------------------
          MULLIKEN AND LOWDIN POPULATION ANALYSES
          ---------------------------------------

     ATOMIC MULLIKEN POPULATION IN EACH MOLECULAR ORBITAL

                      1          2          3          4          5

                  2.000000   2.000000   2.000000   2.000000   2.000000

    1             0.333460   0.160885   0.506004   0.161802   0.505052
    2             0.333460   0.172301   0.494589   0.171375   0.495479
    3             0.333460   0.667148  -0.000259   0.667104  -0.000250
    4             0.333460   0.160885   0.506004   0.161802   0.505052
    5             0.333460   0.172301   0.494589   0.171375   0.495479
    6             0.333460   0.667148  -0.000259   0.667104  -0.000250
    7            -0.000127  -0.000054  -0.000169  -0.000045  -0.000142
    8            -0.000127  -0.000058  -0.000165  -0.000048  -0.000139
    9            -0.000127  -0.000223  -0.000000  -0.000187  -0.000000
   10            -0.000127  -0.000054  -0.000169  -0.000045  -0.000142
   11            -0.000127  -0.000058  -0.000165  -0.000048  -0.000139
   12            -0.000127  -0.000223  -0.000000  -0.000187  -0.000000

                      6          7          8          9         10

                  2.000000   2.000000   2.000000   2.000000   2.000000

    1             0.333418   0.313950   0.194067   0.395465   0.247120
    2             0.333418   0.313950   0.198460   0.391072   0.247236
    3             0.333418   0.313950   0.491771   0.097761   0.296712
    4             0.333418   0.313950   0.194067   0.395465   0.247120
    5             0.333418   0.313950   0.198460   0.391072   0.247236
    6             0.333418   0.313950   0.491771   0.097761   0.296712
    7            -0.000085   0.019384   0.018855   0.058279   0.034700
    8            -0.000085   0.019384   0.019715   0.057419   0.034944
    9            -0.000085   0.019384   0.077131   0.000003   0.139288
   10            -0.000085   0.019384   0.018855   0.058279   0.034700
   11            -0.000085   0.019384   0.019715   0.057419   0.034944
   12            -0.000085   0.019384   0.077131   0.000003   0.139288

                     11         12         13         14         15

                  2.000000   2.000000   2.000000   2.000000   2.000000

    1             0.280259   0.221553   0.170173   0.333333   0.115268
    2             0.280143   0.221553   0.170173   0.333333   0.130900
    3             0.230667   0.221553   0.170173   0.333333   0.414490
    4             0.280259   0.221553   0.170173   0.333333   0.115268
    5             0.280143   0.221553   0.170173   0.333333   0.130900
    6             0.230667   0.221553   0.170173   0.333333   0.414490
    7             0.104588   0.111780   0.163160   0.000000   0.052072
    8             0.104343   0.111780   0.163160   0.000000   0.061164
    9             0.000000   0.111780   0.163160   0.000000   0.226106
   10             0.104588   0.111780   0.163160   0.000000   0.052072
   11             0.104343   0.111780   0.163160   0.000000   0.061164
   12             0.000000   0.111780   0.163160   0.000000   0.226106

                     16         17         18         19         20

                  2.000000   2.000000   2.000000   2.000000   2.000000

    1             0.325171   0.333333   0.250436   0.214638   0.666273
    2             0.309539   0.333333   0.250844   0.214231   0.180882
    3             0.025948   0.333333   0.196332   0.268743   0.152845
    4             0.325171   0.333333   0.250436   0.214638   0.666273
    5             0.309539   0.333333   0.250844   0.214231   0.180882
    6             0.025948   0.333333   0.196332   0.268743   0.152845
    7             0.174156   0.000000   0.050967   0.150625   0.000000
    8             0.165064   0.000000   0.049831   0.151761   0.000000
    9             0.000122   0.000000   0.201590   0.000002   0.000000
   10             0.174156   0.000000   0.050967   0.150625   0.000000
   11             0.165064   0.000000   0.049831   0.151761   0.000000
   12             0.000122   0.000000   0.201590   0.000002   0.000000

                     21

                  2.000000

    1             0.000393
    2             0.485785
    3             0.513822
    4             0.000393
    5             0.485785
    6             0.513822
    7             0.000000
    8             0.000000
    9             0.000000
   10             0.000000
   11             0.000000
   12             0.000000

               ----- POPULATIONS IN EACH AO -----
                             MULLIKEN      LOWDIN
              1  C  1  S      1.99574     1.98965
              2  C  1  S      1.12893     1.01950
              3  C  1  X      0.96215     1.01005
              4  C  1  Y      0.97523     1.01190
              5  C  1  Z      1.00000     1.00000
              6  C  2  S      1.99574     1.98965
              7  C  2  S      1.12893     1.01950
              8  C  2  X      0.96215     1.01005
              9  C  2  Y      0.97523     1.01190
             10  C  2  Z      1.00000     1.00000
             11  C  3  S      1.99574     1.98965
             12  C  3  S      1.12893     1.01950
             13  C  3  X      0.98177     1.01283
             14  C  3  Y      0.95561     1.00912
             15  C  3  Z      1.00000     1.00000
             16  C  4  S      1.99574     1.98965
             17  C  4  S      1.12893     1.01950
             18  C  4  X      0.96215     1.01005
             19  C  4  Y      0.97523     1.01190
             20  C  4  Z      1.00000     1.00000
             21  C  5  S      1.99574     1.98965
             22  C  5  S      1.12893     1.01950
             23  C  5  X      0.96215     1.01005
             24  C  5  Y      0.97523     1.01190
             25  C  5  Z      1.00000     1.00000
             26  C  6  S      1.99574     1.98965
             27  C  6  S      1.12893     1.01950
             28  C  6  X      0.98177     1.01283
             29  C  6  Y      0.95561     1.00912
             30  C  6  Z      1.00000     1.00000
             31  H  7  S      0.93794     0.96890
             32  H  8  S      0.93794     0.96890
             33  H  9  S      0.93794     0.96890
             34  H 10  S      0.93794     0.96890
             35  H 11  S      0.93794     0.96890
             36  H 12  S      0.93794     0.96890

          ----- MULLIKEN ATOMIC OVERLAP POPULATIONS -----
          (OFF-DIAGONAL ELEMENTS NEED TO BE MULTIPLIED BY 2)

             1           2           3           4           5

    1    4.7656511
    2    0.5095046   4.7656511
    3   -0.0290816   0.5095046   4.7656511
    4   -0.0118784  -0.0290816   0.5095046   4.7656511
    5   -0.0290816  -0.0118784  -0.0290816   0.5095046   4.7656511
    6    0.5095046  -0.0290816  -0.0118784  -0.0290816   0.5095046
    7    0.3943222  -0.0250959   0.0016249   0.0000571   0.0016249
    8   -0.0250959   0.3943222  -0.0250959   0.0016249   0.0000571
    9    0.0016249  -0.0250959   0.3943222  -0.0250959   0.0016249
   10    0.0000571   0.0016249  -0.0250959   0.3943222  -0.0250959
   11    0.0016249   0.0000571   0.0016249  -0.0250959   0.3943222
   12   -0.0250959   0.0016249   0.0000571   0.0016249  -0.0250959

             6           7           8           9          10

    6    4.7656511
    7   -0.0250959   0.5983516
    8    0.0016249  -0.0038584   0.5983516
    9    0.0000571  -0.0000669  -0.0038584   0.5983516
   10    0.0016249   0.0000059  -0.0000669  -0.0038584   0.5983516
   11   -0.0250959  -0.0000669   0.0000059  -0.0000669  -0.0038584
   12    0.3943222  -0.0038584  -0.0000669   0.0000059  -0.0000669

            11          12

   11    0.5983516
   12   -0.0038584   0.5983516

          TOTAL MULLIKEN AND LOWDIN ATOMIC POPULATIONS
       ATOM         MULL.POP.    CHARGE          LOW.POP.     CHARGE
    1 C             6.062056   -0.062056         6.031098   -0.031098
    2 C             6.062056   -0.062056         6.031098   -0.031098
    3 C             6.062056   -0.062056         6.031098   -0.031098
    4 C             6.062056   -0.062056         6.031098   -0.031098
    5 C             6.062056   -0.062056         6.031098   -0.031098
    6 C             6.062056   -0.062056         6.031098   -0.031098
    7 H             0.937944    0.062056         0.968902    0.031098
    8 H             0.937944    0.062056         0.968902    0.031098
    9 H             0.937944    0.062056         0.968902    0.031098
   10 H             0.937944    0.062056         0.968902    0.031098
   11 H             0.937944    0.062056         0.968902    0.031098
   12 H             0.937944    0.062056         0.968902    0.031098

          -------------------------------
          BOND ORDER AND VALENCE ANALYSIS     BOND ORDER THRESHOLD=0.050
          -------------------------------

                   BOND                       BOND                       BOND
  ATOM PAIR DIST  ORDER      ATOM PAIR DIST  ORDER      ATOM PAIR DIST  ORDER
    1   2  1.398  1.435        1   4  2.797  0.116        1   6  1.398  1.435
    1   7  1.082  0.973        2   3  1.398  1.435        2   5  2.797  0.116
    2   8  1.082  0.973        3   4  1.398  1.435        3   6  2.797  0.116
    3   9  1.082  0.973        4   5  1.398  1.435        4  10  1.082  0.973
    5   6  1.398  1.435        5  11  1.082  0.973        6  12  1.082  0.973

                       TOTAL       BONDED        FREE
      ATOM            VALENCE     VALENCE     VALENCE
    1 C                 3.979       3.979       0.000
    2 C                 3.979       3.979       0.000
    3 C                 3.979       3.979       0.000
    4 C                 3.979       3.979       0.000
    5 C                 3.979       3.979       0.000
    6 C                 3.979       3.979       0.000
    7 H                 0.996       0.996      -0.000
    8 H                 0.996       0.996      -0.000
    9 H                 0.996       0.996      -0.000
   10 H                 0.996       0.996      -0.000
   11 H                 0.996       0.996      -0.000
   12 H                 0.996       0.996      -0.000

          ---------------------
          ELECTROSTATIC MOMENTS
          ---------------------

 POINT   1           X           Y           Z (BOHR)    CHARGE
                -0.000000   -0.000000    0.000000        0.00 (A.U.)
         DX          DY          DZ         /D/  (DEBYE)
     0.000000   -0.000000    0.000000    0.000000
 ...... END OF PROPERTY EVALUATION ......
 STEP CPU TIME =     0.01 TOTAL CPU TIME =        0.3 (    0.0 MIN)
 TOTAL WALL CLOCK TIME=        0.3 SECONDS, CPU UTILIZATION IS 100.00%

 **************************************************************
 *                                                            *
 *         ENTERING VB2000 INTERFACED INTO GAMESS(US)         *
 *                                                            *
 **************************************************************

 **************************************************************
 *                                                            *
 *                        V B 2 0 0 0                         *
 *                                                            *
 *       An ab initio Valence-Bond Program Based on the       *
 *           Generalized Product Function Method and          *
 *                   the Algebrant Algorithm                  *
 *                                                            *
 *                   Version 2.7 October 2013                 *
 *                      GAMESS(US) Version                    *
 *                     Compiler: gfortran                     *
 *                                                            *
 *         Jiabo Li*, Brian Duke** and Roy McWeeny***         *
 *                                                            *
 *        * SciNet Technologies, 9943 Fieldthorn St.,         *
 *                   San Diego, CA 92127, USA                 *
 *                                                            *
 *  ** Monash University Institute of Pharmaceutical Sciences,*
 *     381 Royal Pde, Parkville, Victoria, 3052, Australia    *
 *                                                            *
 * *** Department of Chemistry, University of Pisa,           *
 *     56100 Pisa, Italy                                      *
 *                                                            *
 *  Reference for the software:                               *
 *     Jiabo Li, Brian Duke, and Roy McWeeny, VB2000 Version  *
 *     2.7, SciNet Technologies, San Diego, CA, 2013          *
 *     URL: http://www.scinetec.com or http://www.vb2000.net  *
 *                                                            *
 *  References for the theory:                                *
 *     General:                                               *
 *     Jiabo Li, and Roy McWeeny, "VB2000: Pushing Valence    *
 *     Bond Theory to New Limits", Int. J. Quantum Chem.,     *
 *     89(2002)208-216.                                       *
 *                                                            *
 *     Spin densities:-                                       *
 *     Jiabo Li, Brian J. Duke, Thomas M. Klapoetke, and Roy  *
 *     McWeeny, Spin-Density of Spin-Free Valence Bond Wave   *
 *     Functions and Its Implementation in VB2000. J. Theor.  *
 *     Comp. Chem. 7(2008)853-867.                            *
 *                                                            *
 *     Spin coupled - n electrons in m orbitals:-             *
 *     Peter B. Karadakov, David L. Cooper, Brian J. Duke,    *
 *     and Jiabo Li, Spin-Coupled Theory for N Electrons in   *
 *     M Orbitals Active Spaces,  J. Phys. Chem. A, 116,      *
 *     7238 - 7244, 2012                                      *
 *                                                            *
 *  Copyright (C) 2000-2013 by SciNet Technologies            *
 **************************************************************

 JOB NAME IS exam-vb24                                                       

 VB2000 DIRECTORY IS: /home/brian/qchem/gamess/vb2000                                                 
 MAXIMUM MEMORY USE IS:    20000000
 THIS IS TAKEN AS THE MAXIMUM OF THE UNUSED MEMORY REQUESTED
 IN GAMESS $SYSTEM BLOCK AND MEMORY REQUESTED IN VB2000 DATA

 Input of molecule
 =================
 #! VB(6)/STO-6G PRINTALL                                                        
                                                                                 
 Title: Benzene STO-6G test - MP2 geom                                                  

 Charge =  0 Multiplicity =  1

 ATOM      ATOMIC                      COORDINATES (ANGS)
           CHARGE         X                   Y                   Z
 C           6.0     0.6991462029        1.2109567454        0.0000000000
 C           6.0    -0.6991462029        1.2109567454        0.0000000000
 C           6.0    -1.3982924059        0.0000000000        0.0000000000
 C           6.0    -0.6991462029       -1.2109567454        0.0000000000
 C           6.0     0.6991462029       -1.2109567454        0.0000000000
 C           6.0     1.3982924059        0.0000000000        0.0000000000
 H           1.0     1.2402361888        2.1481520924        0.0000000000
 H           1.0    -1.2402361888        2.1481520924        0.0000000000
 H           1.0    -2.4804723777        0.0000000000        0.0000000000
 H           1.0    -1.2402361888       -2.1481520924        0.0000000000
 H           1.0     1.2402361888       -2.1481520924        0.0000000000
 H           1.0     2.4804723777        0.0000000000        0.0000000000

 Hartree-Fock Energy from Gamess run =    -230.130020566442

 Basis set size =   36

                    PARAMETER LIMIT VALUES
 Max. no. of atoms                    MAXCEN =   200
 Max. no. of basis functions          MAXBFN =   726
 Max. no. of shells                   MAXSHL =   500
 Max. no. of total primitives         MAXEXP =  1000
 Max. no. of primitives per orbital   MAXPRM =    15
 Max. no. of atoms * no. of orbitals  MAXNAB = 72600
 Increase max basis set size by       NEXTRA =    20
 Max. size for Rumer data             MAXST1 = 33334
 Max. no. of orbitals in group        MAXNOB =   200
 Max. no. of CUBE orbitals            MAXCUB =   100
 Max. no. of groups                   MAXGRP =    99

 BASIS IN $BASIS IS STO      WITH IGAUSS = 6

 VBO LIB IS: /home/brian/qchem/gamess/vb2000/VBOLIB/VBOLIBSTO-nG                             

 Molecular orbitals by HF method
 ===============================================================================
 MO#                       1         2         3         4         5         6
 E(a.u.)             -11.180   -11.180   -11.180   -11.179   -11.179   -11.179
 -------------------------------------------------------------------------------

   1  1  C     s    -0.40651   0.28243  -0.50053  -0.28312  -0.49990   0.40615
   2  1  C     s    -0.00581   0.00530  -0.00940  -0.00779  -0.01376   0.01318
   3  1  C     x    -0.00051  -0.00184  -0.00126  -0.00161   0.00163  -0.00085
   4  1  C     y    -0.00088   0.00128   0.00034   0.00164   0.00032  -0.00146
   5  1  C     z     0.00000   0.00000   0.00000   0.00000   0.00000   0.00000
   6  2  C     s    -0.40651  -0.29226  -0.49486  -0.29136   0.49514  -0.40615
   7  2  C     s    -0.00581  -0.00549  -0.00929  -0.00802   0.01363  -0.01318
   8  2  C     x     0.00051  -0.00182   0.00130   0.00158   0.00165  -0.00085
   9  2  C     y    -0.00088  -0.00128   0.00036   0.00164  -0.00029   0.00146
  10  2  C     z     0.00000   0.00000   0.00000   0.00000   0.00000   0.00000
  11  3  C     s    -0.40651  -0.57469   0.00567   0.57449   0.00476   0.40615
  12  3  C     s    -0.00581  -0.01079   0.00011   0.01581   0.00013   0.01318
  13  3  C     x     0.00101   0.00039  -0.00000   0.00125   0.00001   0.00169
  14  3  C     y     0.00000   0.00003   0.00257   0.00002  -0.00254  -0.00000
  15  3  C     z     0.00000   0.00000   0.00000   0.00000   0.00000   0.00000
  16  4  C     s    -0.40651  -0.28243   0.50053  -0.28312  -0.49990  -0.40615
  17  4  C     s    -0.00581  -0.00530   0.00940  -0.00779  -0.01376  -0.01318
  18  4  C     x     0.00051  -0.00184  -0.00126   0.00161  -0.00163  -0.00085
  19  4  C     y     0.00088   0.00128   0.00034  -0.00164  -0.00032  -0.00146
  20  4  C     z     0.00000   0.00000   0.00000   0.00000   0.00000   0.00000
  21  5  C     s    -0.40651   0.29226   0.49486  -0.29136   0.49514   0.40615
  22  5  C     s    -0.00581   0.00549   0.00929  -0.00802   0.01363   0.01318
  23  5  C     x    -0.00051  -0.00182   0.00130  -0.00158  -0.00165  -0.00085
  24  5  C     y     0.00088  -0.00128   0.00036  -0.00164   0.00029   0.00146
  25  5  C     z     0.00000   0.00000   0.00000   0.00000   0.00000   0.00000
  26  6  C     s    -0.40651   0.57469  -0.00567   0.57449   0.00476  -0.40615
  27  6  C     s    -0.00581   0.01079  -0.00011   0.01581   0.00013  -0.01318
  28  6  C     x    -0.00101   0.00039  -0.00000  -0.00125  -0.00001   0.00169
  29  6  C     y    -0.00000   0.00003   0.00257  -0.00002   0.00254  -0.00000
  30  6  C     z     0.00000   0.00000   0.00000   0.00000   0.00000   0.00000
  31  7  H     s     0.00187  -0.00125   0.00221   0.00124   0.00220  -0.00176
  32  8  H     s     0.00187   0.00129   0.00218   0.00128  -0.00218   0.00176
  33  9  H     s     0.00187   0.00253  -0.00003  -0.00252  -0.00002  -0.00176
  34 10  H     s     0.00187   0.00125  -0.00221   0.00124   0.00220   0.00176
  35 11  H     s     0.00187  -0.00129  -0.00218   0.00128  -0.00218  -0.00176
  36 12  H     s     0.00187  -0.00253   0.00003  -0.00252  -0.00002   0.00176

 MO#                       7         8         9        10        11        12
 E(a.u.)              -1.089    -0.956    -0.956    -0.769    -0.769    -0.663
 -------------------------------------------------------------------------------

   1  1  C     s     0.10043  -0.06943  -0.12206  -0.05484   0.09522  -0.00743
   2  1  C     s    -0.26413   0.19605   0.34468   0.16724  -0.29034   0.03369
   3  1  C     x     0.03038   0.09189  -0.06755  -0.15105  -0.13758   0.11779
   4  1  C     y     0.05262  -0.06822   0.01233   0.13773  -0.00828   0.20403
   5  1  C     z     0.00000   0.00000   0.00000   0.00000   0.00000   0.00000
   6  2  C     s     0.10043   0.07099  -0.12115  -0.05504  -0.09510  -0.00743
   7  2  C     s    -0.26413  -0.20047   0.34212   0.16783   0.29000   0.03369
   8  2  C     x    -0.03038   0.09101   0.06873   0.15077  -0.13789  -0.11779
   9  2  C     y     0.05262   0.06806   0.01320   0.13775   0.00800   0.20403
  10  2  C     z     0.00000   0.00000   0.00000   0.00000   0.00000   0.00000
  11  3  C     s     0.10043   0.14042   0.00090   0.10988  -0.00011  -0.00743
  12  3  C     s    -0.26413  -0.39652  -0.00255  -0.33506   0.00034   0.03369
  13  3  C     x    -0.06076  -0.02658  -0.00017   0.08766  -0.00009  -0.23559
  14  3  C     y    -0.00000  -0.00084   0.13079   0.00023   0.23043   0.00000
  15  3  C     z     0.00000   0.00000   0.00000   0.00000   0.00000   0.00000
  16  4  C     s     0.10043   0.06943   0.12206  -0.05484   0.09522  -0.00743
  17  4  C     s    -0.26413  -0.19605  -0.34468   0.16724  -0.29034   0.03369
  18  4  C     x    -0.03038   0.09189  -0.06755   0.15105   0.13758  -0.11779
  19  4  C     y    -0.05262  -0.06822   0.01233  -0.13773   0.00828  -0.20403
  20  4  C     z     0.00000   0.00000   0.00000   0.00000   0.00000   0.00000
  21  5  C     s     0.10043  -0.07099   0.12115  -0.05504  -0.09510  -0.00743
  22  5  C     s    -0.26413   0.20047  -0.34212   0.16783   0.29000   0.03369
  23  5  C     x     0.03038   0.09101   0.06873  -0.15077   0.13789   0.11779
  24  5  C     y    -0.05262   0.06806   0.01320  -0.13775  -0.00800  -0.20403
  25  5  C     z     0.00000   0.00000   0.00000   0.00000   0.00000   0.00000
  26  6  C     s     0.10043  -0.14042  -0.00090   0.10988  -0.00011  -0.00743
  27  6  C     s    -0.26413   0.39652   0.00255  -0.33506   0.00034   0.03369
  28  6  C     x     0.06076  -0.02658  -0.00017  -0.08766   0.00009   0.23559
  29  6  C     y     0.00000  -0.00084   0.13079  -0.00023  -0.23043  -0.00000
  30  6  C     z     0.00000   0.00000   0.00000   0.00000   0.00000   0.00000
  31  7  H     s    -0.04650   0.05395   0.09484   0.09067  -0.15741   0.17516
  32  8  H     s    -0.04650  -0.05516   0.09414   0.09099   0.15723   0.17516
  33  9  H     s    -0.04650  -0.10911  -0.00070  -0.18166   0.00018   0.17516
  34 10  H     s    -0.04650  -0.05395  -0.09484   0.09067  -0.15741   0.17516
  35 11  H     s    -0.04650   0.05516  -0.09414   0.09099   0.15723   0.17516
  36 12  H     s    -0.04650   0.10911   0.00070  -0.18166   0.00018   0.17516

 MO#                      13        14        15        16        17        18
 E(a.u.)              -0.600    -0.553    -0.536    -0.536    -0.456    -0.436
 -------------------------------------------------------------------------------

   1  1  C     s     0.06250  -0.00000  -0.01243  -0.02274   0.00000  -0.00420
   2  1  C     s    -0.21341   0.00000   0.04139   0.07570   0.00000   0.00993
   3  1  C     x    -0.08331  -0.28672  -0.00990  -0.20395   0.00000  -0.32004
   4  1  C     y    -0.14430   0.16554  -0.19782  -0.25446   0.00000   0.02179
   5  1  C     z     0.00000   0.00000   0.00000   0.00000   0.33475   0.00000
   6  2  C     s    -0.06250   0.00000   0.01348  -0.02214   0.00000  -0.00416
   7  2  C     s     0.21341  -0.00000  -0.04486   0.07369   0.00000   0.00982
   8  2  C     x    -0.08331   0.28672  -0.01935   0.20328   0.00000   0.32019
   9  2  C     y     0.14430   0.16554   0.20941  -0.24501   0.00000   0.02370
  10  2  C     z     0.00000   0.00000   0.00000   0.00000   0.33475   0.00000
  11  3  C     s     0.06250  -0.00000   0.02591   0.00060   0.00000   0.00836
  12  3  C     s    -0.21341   0.00000  -0.08625  -0.00200   0.00000  -0.01976
  13  3  C     x     0.16663  -0.00000  -0.36729  -0.00853   0.00000  -0.28071
  14  3  C     y    -0.00000  -0.33107  -0.00239   0.10293   0.00000  -0.00108
  15  3  C     z     0.00000   0.00000   0.00000   0.00000   0.33475   0.00000
  16  4  C     s    -0.06250   0.00000   0.01243   0.02274   0.00000  -0.00420
  17  4  C     s     0.21341  -0.00000  -0.04139  -0.07570   0.00000   0.00993
  18  4  C     x    -0.08331  -0.28672  -0.00990  -0.20395   0.00000   0.32004
  19  4  C     y    -0.14430   0.16554  -0.19782  -0.25446   0.00000  -0.02179
  20  4  C     z     0.00000   0.00000   0.00000   0.00000   0.33475   0.00000
  21  5  C     s     0.06250  -0.00000  -0.01348   0.02214   0.00000  -0.00416
  22  5  C     s    -0.21341   0.00000   0.04486  -0.07369   0.00000   0.00982
  23  5  C     x    -0.08331   0.28672  -0.01935   0.20328   0.00000  -0.32019
  24  5  C     y     0.14430   0.16554   0.20941  -0.24501   0.00000  -0.02370
  25  5  C     z     0.00000   0.00000   0.00000   0.00000   0.33475   0.00000
  26  6  C     s    -0.06250   0.00000  -0.02591  -0.00060   0.00000   0.00836
  27  6  C     s     0.21341  -0.00000   0.08625   0.00200   0.00000  -0.01976
  28  6  C     x     0.16663  -0.00000  -0.36729  -0.00853   0.00000   0.28071
  29  6  C     y    -0.00000  -0.33107  -0.00239   0.10293   0.00000   0.00108
  30  6  C     z     0.00000   0.00000   0.00000   0.00000   0.33475   0.00000
  31  7  H     s    -0.23314   0.00000  -0.13560  -0.24799   0.00000  -0.14845
  32  8  H     s     0.23314  -0.00000   0.14697  -0.24143   0.00000  -0.14679
  33  9  H     s    -0.23314   0.00000   0.28257   0.00656   0.00000   0.29524
  34 10  H     s     0.23314  -0.00000   0.13560   0.24799   0.00000  -0.14845
  35 11  H     s    -0.23314   0.00000  -0.14697   0.24143   0.00000  -0.14679
  36 12  H     s     0.23314  -0.00000  -0.28257  -0.00656   0.00000   0.29524

 MO#                      19        20        21        22        23        24
 E(a.u.)              -0.436    -0.282    -0.282     0.261     0.261     0.491
 -------------------------------------------------------------------------------

   1  1  C     s    -0.00723   0.00000   0.00000   0.00000   0.00000   0.00000
   2  1  C     s     0.01708   0.00000   0.00000   0.00000   0.00000   0.00000
   3  1  C     x     0.02379   0.00000   0.00000   0.00000   0.00000   0.00000
   4  1  C     y    -0.29392   0.00000   0.00000   0.00000   0.00000   0.00000
   5  1  C     z     0.00000  -0.53194   0.01292  -0.55878   0.34562   0.52113
   6  2  C     s     0.00726   0.00000   0.00000   0.00000   0.00000   0.00000
   7  2  C     s    -0.01714   0.00000   0.00000   0.00000   0.00000   0.00000
   8  2  C     x     0.02171   0.00000   0.00000   0.00000   0.00000   0.00000
   9  2  C     y     0.29377   0.00000   0.00000   0.00000   0.00000   0.00000
  10  2  C     z     0.00000  -0.27716  -0.45421   0.57870   0.31111  -0.52113
  11  3  C     s    -0.00003   0.00000   0.00000   0.00000   0.00000   0.00000
  12  3  C     s     0.00006   0.00000   0.00000   0.00000   0.00000   0.00000
  13  3  C     x     0.00091   0.00000   0.00000   0.00000   0.00000   0.00000
  14  3  C     y    -0.33325   0.00000   0.00000   0.00000   0.00000   0.00000
  15  3  C     z     0.00000   0.25478  -0.46713  -0.01993  -0.65672   0.52113
  16  4  C     s    -0.00723   0.00000   0.00000   0.00000   0.00000   0.00000
  17  4  C     s     0.01708   0.00000   0.00000   0.00000   0.00000   0.00000
  18  4  C     x    -0.02379   0.00000   0.00000   0.00000   0.00000   0.00000
  19  4  C     y     0.29392   0.00000   0.00000   0.00000   0.00000   0.00000
  20  4  C     z     0.00000   0.53194  -0.01292  -0.55878   0.34562  -0.52113
  21  5  C     s     0.00726   0.00000   0.00000   0.00000   0.00000   0.00000
  22  5  C     s    -0.01714   0.00000   0.00000   0.00000   0.00000   0.00000
  23  5  C     x    -0.02171   0.00000   0.00000   0.00000   0.00000   0.00000
  24  5  C     y    -0.29377   0.00000   0.00000   0.00000   0.00000   0.00000
  25  5  C     z     0.00000   0.27716   0.45421   0.57870   0.31111   0.52113
  26  6  C     s    -0.00003   0.00000   0.00000   0.00000   0.00000   0.00000
  27  6  C     s     0.00006   0.00000   0.00000   0.00000   0.00000   0.00000
  28  6  C     x    -0.00091   0.00000   0.00000   0.00000   0.00000   0.00000
  29  6  C     y     0.33325   0.00000   0.00000   0.00000   0.00000   0.00000
  30  6  C     z     0.00000  -0.25478   0.46713  -0.01993  -0.65672  -0.52113
  31  7  H     s    -0.25521   0.00000   0.00000   0.00000   0.00000   0.00000
  32  8  H     s     0.25617   0.00000   0.00000   0.00000   0.00000   0.00000
  33  9  H     s    -0.00096   0.00000   0.00000   0.00000   0.00000   0.00000
  34 10  H     s    -0.25521   0.00000   0.00000   0.00000   0.00000   0.00000
  35 11  H     s     0.25617   0.00000   0.00000   0.00000   0.00000   0.00000
  36 12  H     s    -0.00096   0.00000   0.00000   0.00000   0.00000   0.00000

 MO#                      25        26
 E(a.u.)               0.576     0.643
 -------------------------------------------------------------------------------

   1  1  C     s    -0.04801  -0.01280
   2  1  C     s     0.33455   0.09024
   3  1  C     x     0.15849   0.38978
   4  1  C     y     0.27452   0.08336
   5  1  C     z     0.00000   0.00000
   6  2  C     s    -0.04801   0.01366
   7  2  C     s     0.33455  -0.09635
   8  2  C     x    -0.15849   0.39329
   9  2  C     y     0.27452  -0.10220
  10  2  C     z     0.00000   0.00000
  11  3  C     s    -0.04801   0.02646
  12  3  C     s     0.33455  -0.18659
  13  3  C     x    -0.31699   0.55224
  14  3  C     y     0.00000  -0.00639
  15  3  C     z     0.00000   0.00000
  16  4  C     s    -0.04801   0.01280
  17  4  C     s     0.33455  -0.09024
  18  4  C     x    -0.15849   0.38978
  19  4  C     y    -0.27452   0.08336
  20  4  C     z     0.00000   0.00000
  21  5  C     s    -0.04801  -0.01366
  22  5  C     s     0.33455   0.09635
  23  5  C     x     0.15849   0.39329
  24  5  C     y    -0.27452  -0.10220
  25  5  C     z     0.00000   0.00000
  26  6  C     s    -0.04801  -0.02646
  27  6  C     s     0.33455   0.18659
  28  6  C     x     0.31699   0.55224
  29  6  C     y    -0.00000  -0.00639
  30  6  C     z     0.00000   0.00000
  31  7  H     s    -0.51267  -0.31362
  32  8  H     s    -0.51267   0.33484
  33  9  H     s    -0.51267   0.64846
  34 10  H     s    -0.51267   0.31362
  35 11  H     s    -0.51267  -0.33484
  36 12  H     s    -0.51267  -0.64846


 Localized molecular orbitals and the bond labels
 ===============================================================================
 LMO#                      1         2         3         4         5         6
 E(a.u.)             -11.140   -11.140   -11.140   -11.140   -11.140   -11.140
 Bond Label            3:(0)     5:(0)     1:(0)     4:(0)     6:(0)     2:(0)
 -------------------------------------------------------------------------------

   1  1  C     s     0.00040   0.00040  -1.00672   0.00026   0.00338  -0.00338
   2  1  C     s    -0.00181  -0.00181   0.01536  -0.00118  -0.01389   0.01389
   3  1  C     x     0.00176  -0.00063  -0.00012   0.00034  -0.00834  -0.01654
   4  1  C     y     0.00029   0.00167  -0.00021   0.00060   0.01428   0.00008
   5  1  C     z     0.00000  -0.00000  -0.00000  -0.00000  -0.00000   0.00000
   6  2  C     s    -0.00338   0.00026  -0.00338   0.00040  -0.00040  -1.00672
   7  2  C     s     0.01389  -0.00118   0.01389  -0.00181   0.00181   0.01536
   8  2  C     x    -0.00834  -0.00034   0.01654   0.00063   0.00176   0.00012
   9  2  C     y    -0.01428   0.00060   0.00008   0.00167  -0.00029  -0.00021
  10  2  C     z     0.00000  -0.00000  -0.00000  -0.00000   0.00000   0.00000
  11  3  C     s    -1.00672   0.00040   0.00040  -0.00338  -0.00026  -0.00338
  12  3  C     s     0.01536  -0.00181  -0.00181   0.01389   0.00118   0.01389
  13  3  C     x     0.00024  -0.00113  -0.00113   0.00820   0.00069   0.00820
  14  3  C     y    -0.00000   0.00138  -0.00138  -0.01437   0.00000   0.01437
  15  3  C     z     0.00000   0.00000   0.00000   0.00000   0.00000   0.00000
  16  4  C     s    -0.00338  -0.00338   0.00026  -1.00672  -0.00040   0.00040
  17  4  C     s     0.01389   0.01389  -0.00118   0.01536   0.00181  -0.00181
  18  4  C     x    -0.00834   0.01654  -0.00034   0.00012   0.00176   0.00063
  19  4  C     y     0.01428  -0.00008  -0.00060   0.00021   0.00029  -0.00167
  20  4  C     z     0.00000   0.00000   0.00000   0.00000   0.00000  -0.00000
  21  5  C     s     0.00040  -1.00672   0.00040  -0.00338   0.00338   0.00026
  22  5  C     s    -0.00181   0.01536  -0.00181   0.01389  -0.01389  -0.00118
  23  5  C     x     0.00176  -0.00012  -0.00063  -0.01654  -0.00834   0.00034
  24  5  C     y    -0.00029   0.00021  -0.00167  -0.00008  -0.01428  -0.00060
  25  5  C     z     0.00000   0.00000  -0.00000   0.00000  -0.00000  -0.00000
  26  6  C     s     0.00026  -0.00338  -0.00338   0.00040   1.00672   0.00040
  27  6  C     s    -0.00118   0.01389   0.01389  -0.00181  -0.01536  -0.00181
  28  6  C     x     0.00069  -0.00820  -0.00820   0.00113   0.00024   0.00113
  29  6  C     y    -0.00000  -0.01437   0.01437   0.00138   0.00000  -0.00138
  30  6  C     z    -0.00000   0.00000  -0.00000   0.00000  -0.00000   0.00000
  31  7  H     s     0.00113   0.00113   0.01661   0.00007   0.00226  -0.00226
  32  8  H     s    -0.00226   0.00007  -0.00226   0.00113  -0.00113   0.01661
  33  9  H     s     0.01661   0.00113   0.00113  -0.00226  -0.00007  -0.00226
  34 10  H     s    -0.00226  -0.00226   0.00007   0.01661  -0.00113   0.00113
  35 11  H     s     0.00113   0.01661   0.00113  -0.00226   0.00226   0.00007
  36 12  H     s     0.00007  -0.00226  -0.00226   0.00113  -0.01661   0.00113

 LMO#                      7         8         9        10        11        12
 E(a.u.)              -0.766    -0.766    -0.766    -0.766    -0.766    -0.766
 Bond Label           2-1(1)    3-2(1)    4-3(1)    6-5(1)    6-1(1)    5-4(1)
 -------------------------------------------------------------------------------

   1  1  C     s    -0.08820  -0.01042   0.00452  -0.01041   0.08820   0.00452
   2  1  C     s     0.35403   0.04840  -0.02115   0.04840  -0.35403  -0.02115
   3  1  C     x    -0.43845  -0.04536   0.02237   0.02312  -0.22417  -0.00643
   4  1  C     y     0.00571   0.00051   0.00549  -0.03903   0.37686   0.02212
   5  1  C     z     0.00000  -0.00000   0.00000  -0.00000   0.00000  -0.00000
   6  2  C     s    -0.08820   0.08820   0.01042  -0.00452  -0.01042   0.00452
[...]
  21  5  C     s   0.00595  -0.01145  -0.00595   0.01145  -0.00114   0.08716
  22  5  C     s  -0.03104   0.05616   0.03104  -0.05616   0.00710  -0.36048
  23  5  C     x  -0.02004  -0.04381  -0.02993  -0.02281  -0.00222  -0.23007
  24  5  C     y  -0.02299  -0.00104  -0.00586  -0.03742   0.00385   0.39849
  25  5  C     z   0.00000   0.00000   0.00000   0.00000   0.00000   0.00000
  26  6  C     s  -0.01145   0.00595  -0.00114  -0.08716  -0.00595  -0.01145
  27  6  C     s   0.05616  -0.03104   0.00710   0.36048   0.03104   0.05616
  28  6  C     x  -0.02100   0.00989  -0.00444   0.46014  -0.00989  -0.02100
  29  6  C     y   0.03846   0.02885   0.00000  -0.00000   0.02885  -0.03846
  30  6  C     z   0.00000   0.00000   0.00000   0.00000   0.00000   0.00000
  31  7  H     s  -0.53444  -0.00240  -0.01355  -0.03365  -0.03365   0.01355
  32  8  H     s   0.03365   0.01355  -0.03365  -0.01355   0.53444  -0.00240
  33  9  H     s   0.01355   0.03365   0.53444   0.00240  -0.03365   0.01355
  34 10  H     s  -0.00240  -0.53444  -0.03365  -0.01355  -0.01355   0.03365
  35 11  H     s   0.01355   0.03365  -0.01355  -0.03365   0.00240  -0.53444
  36 12  H     s   0.03365   0.01355   0.00240   0.53444  -0.01355   0.03365

 ===========================================================================
    Orbital#            19        20        21        22        23        24
      Group#             2         2         2         2         2         2
 ---------------------------------------------------------------------------
  AO# LABELS
   1  1  C     s   0.00000   0.00000   0.00000   0.00000   0.00000   0.00000
   2  1  C     s   0.00000   0.00000   0.00000   0.00000   0.00000   0.00000
   3  1  C     x   0.00000   0.00000   0.00000   0.00000   0.00000   0.00000
   4  1  C     y   0.00000   0.00000   0.00000   0.00000   0.00000   0.00000
   5  1  C     z   1.00000   0.00000   0.00000   0.00000   0.00000   0.00000
   6  2  C     s   0.00000   0.00000   0.00000   0.00000   0.00000   0.00000
   7  2  C     s   0.00000   0.00000   0.00000   0.00000   0.00000   0.00000
   8  2  C     x   0.00000   0.00000   0.00000   0.00000   0.00000   0.00000
   9  2  C     y   0.00000   0.00000   0.00000   0.00000   0.00000   0.00000
  10  2  C     z   0.00000   1.00000   0.00000   0.00000   0.00000  -0.00000
  11  3  C     s   0.00000   0.00000   0.00000   0.00000   0.00000   0.00000
  12  3  C     s   0.00000   0.00000   0.00000   0.00000   0.00000   0.00000
  13  3  C     x   0.00000   0.00000   0.00000   0.00000   0.00000   0.00000
  14  3  C     y   0.00000   0.00000   0.00000   0.00000   0.00000   0.00000
  15  3  C     z   0.00000   0.00000   1.00000   0.00000   0.00000   0.00000
  16  4  C     s   0.00000   0.00000   0.00000   0.00000   0.00000   0.00000
  17  4  C     s   0.00000   0.00000   0.00000   0.00000   0.00000   0.00000
  18  4  C     x   0.00000   0.00000   0.00000   0.00000   0.00000   0.00000
  19  4  C     y   0.00000   0.00000   0.00000   0.00000   0.00000   0.00000
  20  4  C     z   0.00000   0.00000   0.00000   1.00000   0.00000   0.00000
  21  5  C     s   0.00000   0.00000   0.00000   0.00000   0.00000   0.00000
  22  5  C     s   0.00000   0.00000   0.00000   0.00000   0.00000   0.00000
  23  5  C     x   0.00000   0.00000   0.00000   0.00000   0.00000   0.00000
  24  5  C     y   0.00000   0.00000   0.00000   0.00000   0.00000   0.00000
  25  5  C     z  -0.00000   0.00000  -0.00000  -0.00000   1.00000   0.00000
  26  6  C     s   0.00000   0.00000   0.00000   0.00000   0.00000   0.00000
  27  6  C     s   0.00000   0.00000   0.00000   0.00000   0.00000   0.00000
  28  6  C     x   0.00000   0.00000   0.00000   0.00000   0.00000   0.00000
  29  6  C     y   0.00000   0.00000   0.00000   0.00000   0.00000   0.00000
  30  6  C     z  -0.00000  -0.00000   0.00000   0.00000  -0.00000   1.00000
  31  7  H     s   0.00000   0.00000   0.00000   0.00000   0.00000   0.00000
  32  8  H     s   0.00000   0.00000   0.00000   0.00000   0.00000   0.00000
  33  9  H     s   0.00000   0.00000   0.00000   0.00000   0.00000   0.00000
  34 10  H     s   0.00000   0.00000   0.00000   0.00000   0.00000   0.00000
  35 11  H     s   0.00000   0.00000   0.00000   0.00000   0.00000   0.00000
  36 12  H     s   0.00000   0.00000   0.00000   0.00000   0.00000   0.00000


 CALCULATION OF POSITION AND EXTENT OF VB ORBITALS

 $CENTROID found for  1 orbitals -  19

 4 DISTANCES found for atoms -   1  2  6  7

 MOLECULAR GEOMETRY ABOUT CENTER OF MASS

  Atom#   ATOMIC NO.     X        Y        Z
    1         6        0.6991   1.2110   0.0000
    2         6       -0.6991   1.2110   0.0000
    3         6       -1.3983   0.0000   0.0000
    4         6       -0.6991  -1.2110   0.0000
    5         6        0.6991  -1.2110   0.0000
    6         6        1.3983   0.0000   0.0000
    7         1        1.2402   2.1482   0.0000
    8         1       -1.2402   2.1482   0.0000
    9         1       -2.4805   0.0000   0.0000
   10         1       -1.2402  -2.1482   0.0000
   11         1        1.2402  -2.1482   0.0000
   12         1        2.4805   0.0000   0.0000

 CENTROIDS OF CHARGE FOR EACH VB GROUP & DISTANCES FROM 4 ATOMS

                                                  DISTANCES FROM ATOMS
 Orbital#   Group#       X        Y        Z        1        2        6        7
   19         2        0.6991   1.2110   0.0000   0.0000   1.3983   1.3983   1.0822

 EXTENT OF ORBITAL MEASURED BY (<R**2>)

 Orbital#   Group#     <X**2>   <Y**2>   <Z**2>   <R**2> Sqrt<R**2>

   19         2        0.1420   0.1420   0.4260   0.7099   0.8426

 WORDS OF DYNAMIC MEMORY USED IN VB2000 CODE ONLY:      272173
 NOTE THAT THIS IS IN ADDITION TO MEMORY USED BY GAMESS
 PRINTED NEAR END OF OUTPUT. ADD THE TWO AMOUNTS TO GIVE
 THE TOTAL MEMORY USED BY THE JOB

 STATISTICS OF CPU TIMES (SECONDS)
 CPU TIME FOR INITIALIZATION        0.030
 CPU TIME FOR MACROITERATION        0.640
 TOTAL CPU TIME                     0.670

 STEP CPU TIME =     0.72 TOTAL CPU TIME =        1.0 (    0.0 MIN)
 TOTAL WALL CLOCK TIME=        1.1 SECONDS, CPU UTILIZATION IS  96.30%

 **************************************************************
 *                                                            *
 *                  ENDING GAMESS(US) VB2000                  *
 *                                                            *
 *  Properties for individual molecular orbitals are correct  *
 *   only for VB modified orbitals in a Hartree-Fock group.   *
 *                                                            *
 **************************************************************

     ----------------------------------
     PROPERTIES FOR THE VB WAVEFUNCTION
     ----------------------------------

          -----------------
          ENERGY COMPONENTS
          -----------------

         WAVEFUNCTION NORMALIZATION =       1.0000000000

                ONE ELECTRON ENERGY =    -713.5667842859
                TWO ELECTRON ENERGY =     280.4522832825
           NUCLEAR REPULSION ENERGY =     203.1163745651
                                      ------------------
                       TOTAL ENERGY =    -229.9981264383

 ELECTRON-ELECTRON POTENTIAL ENERGY =     280.4522832825
  NUCLEUS-ELECTRON POTENTIAL ENERGY =    -944.5541068282
   NUCLEUS-NUCLEUS POTENTIAL ENERGY =     203.1163745651
                                      ------------------
             TOTAL POTENTIAL ENERGY =    -460.9854489806
               TOTAL KINETIC ENERGY =     230.9873225422
                 VIRIAL RATIO (V/T) =       1.9957175308

          ---------------------------------------
          MULLIKEN AND LOWDIN POPULATION ANALYSES
          ---------------------------------------

     ATOMIC MULLIKEN POPULATION IN EACH MOLECULAR ORBITAL

                      1          2          3          4          5

                  2.000000   2.000000   2.000000   2.000000   2.000000

    1            -0.001787   0.000008  -0.001787   0.000008   0.000001
    2             2.004744   0.000001   0.000008  -0.001787   0.000008
    3            -0.001787   0.000008   0.000001   2.004744  -0.001787
    4             0.000008  -0.001787   0.000008  -0.001787   2.004744
    5             0.000001   2.004744  -0.001787   0.000008  -0.001787
    6             0.000008  -0.001787   2.004744   0.000001   0.000008
    7             0.000011   0.000000   0.000011   0.000000   0.000000
    8            -0.001208   0.000000   0.000000   0.000011   0.000000
    9             0.000011   0.000000   0.000000  -0.001208   0.000011
   10             0.000000   0.000011   0.000000   0.000011  -0.001208
   11             0.000000  -0.001208   0.000011   0.000000   0.000011
   12             0.000000   0.000011  -0.001208   0.000000   0.000000

                      6          7          8          9         10

                  2.000000   2.000000   2.000000   2.000000   2.000000

    1             2.004744   1.019318  -0.000959  -0.010236  -0.000959
    2            -0.001787  -0.010235  -0.000959   1.019318  -0.010236
    3             0.000008  -0.000959  -0.010235   1.019318   1.019318
    4             0.000001  -0.000959   1.019318  -0.010235   1.019318
    5             0.000008  -0.010235   1.019318  -0.000959  -0.010236
    6            -0.001787   1.019318  -0.010235  -0.000959  -0.000959
    7            -0.001208  -0.009583   0.000016   0.001444   0.000016
    8             0.000011   0.001444   0.000016  -0.009583   0.001444
    9             0.000000   0.000016   0.001444  -0.009583  -0.009583
   10             0.000000   0.000016  -0.009583   0.001444  -0.009583
   11             0.000000   0.001444  -0.009583   0.000016   0.001444
   12             0.000011  -0.009583   0.001444   0.000016   0.000016

                     11         12         13         14         15

                  2.000000   2.000000   2.000000   2.000000   2.000000

    1             1.019318  -0.010236   1.057874  -0.000064   0.001046
    2             1.019318  -0.000959  -0.010216   0.001046  -0.010216
    3            -0.010235  -0.000959   0.001046  -0.010216   1.057874
    4            -0.000959  -0.010236  -0.000064   1.057874  -0.010216
    5            -0.000959   1.019318   0.001046  -0.010216   0.001046
    6            -0.010236   1.019318  -0.010216   0.001046  -0.000064
    7            -0.009583   0.001444   0.962251  -0.000001   0.000153
    8            -0.009583   0.000016  -0.001013   0.000153  -0.001013
    9             0.001444   0.000016   0.000153  -0.001013   0.962251
   10             0.000016   0.001444  -0.000001   0.962251  -0.001013
   11             0.000016  -0.009583   0.000153  -0.001013   0.000153
   12             0.001444  -0.009583  -0.001013   0.000153  -0.000001

                     16         17         18         19         20

                  2.000000   2.000000   2.000000   2.000000   2.000000

    1            -0.010216  -0.010216   0.001046   0.214638   0.666273
    2             0.001046   1.057874  -0.000064   0.214231   0.180882
    3            -0.000064  -0.010216   0.001046   0.268743   0.152845
    4             0.001046   0.001046  -0.010216   0.214638   0.666273
    5            -0.010216  -0.000064   1.057874   0.214231   0.180882
    6             1.057874   0.001046  -0.010216   0.268743   0.152845
    7            -0.001013  -0.001013   0.000153   0.150625   0.000000
    8             0.000153   0.962251  -0.000001   0.151761   0.000000
    9            -0.000001  -0.001013   0.000153   0.000002   0.000000
   10             0.000153   0.000153  -0.001013   0.150625   0.000000
   11            -0.001013  -0.000001   0.962251   0.151761   0.000000
   12             0.962251   0.000153  -0.001013   0.000002   0.000000

                     21

                  2.000000

    1             0.000393
    2             0.485785
    3             0.513822
    4             0.000393
    5             0.485785
    6             0.513822
    7             0.000000
    8             0.000000
    9             0.000000
   10             0.000000
   11             0.000000
   12             0.000000

               ----- POPULATIONS IN EACH AO -----
                             MULLIKEN      LOWDIN
              1  C  1  S      1.99565     1.98959
              2  C  1  S      1.12893     1.01960
              3  C  1  X      0.95881     1.00760
              4  C  1  Y      0.97352     1.01079
              5  C  1  Z      1.00000     1.00000
              6  C  2  S      1.99565     1.98959
              7  C  2  S      1.12893     1.01960
              8  C  2  X      0.95881     1.00760
              9  C  2  Y      0.97352     1.01079
             10  C  2  Z      1.00000     1.00000
             11  C  3  S      1.99565     1.98959
             12  C  3  S      1.12893     1.01960
             13  C  3  X      0.98088     1.01238
             14  C  3  Y      0.95145     1.00601
             15  C  3  Z      1.00000     1.00000
             16  C  4  S      1.99565     1.98959
             17  C  4  S      1.12893     1.01960
             18  C  4  X      0.95881     1.00760
             19  C  4  Y      0.97352     1.01079
             20  C  4  Z      1.00000     1.00000
             21  C  5  S      1.99565     1.98959
             22  C  5  S      1.12893     1.01960
             23  C  5  X      0.95881     1.00760
             24  C  5  Y      0.97352     1.01079
             25  C  5  Z      1.00000     1.00000
             26  C  6  S      1.99565     1.98959
             27  C  6  S      1.12893     1.01960
             28  C  6  X      0.98088     1.01238
             29  C  6  Y      0.95145     1.00601
             30  C  6  Z      1.00000     1.00000
             31  H  7  S      0.94310     0.97242
             32  H  8  S      0.94310     0.97242
             33  H  9  S      0.94310     0.97242
             34  H 10  S      0.94310     0.97242
             35  H 11  S      0.94310     0.97242
             36  H 12  S      0.94310     0.97242

          ----- MULLIKEN ATOMIC OVERLAP POPULATIONS -----
          (OFF-DIAGONAL ELEMENTS NEED TO BE MULTIPLIED BY 2)

             1           2           3           4           5

    1    4.9374931
    2    0.4189273   4.9374931
    3   -0.0294831   0.4189273   4.9374931
    4   -0.0082203  -0.0294831   0.4189273   4.9374931
    5   -0.0294831  -0.0082203  -0.0294831   0.4189273   4.9374931
    6    0.4189273  -0.0294831  -0.0082203  -0.0294831   0.4189273
    7    0.3951592  -0.0248889   0.0016556   0.0000482   0.0016556
    8   -0.0248889   0.3951592  -0.0248889   0.0016556   0.0000482
    9    0.0016556  -0.0248889   0.3951592  -0.0248889   0.0016556
   10    0.0000482   0.0016556  -0.0248889   0.3951592  -0.0248889
   11    0.0016556   0.0000482   0.0016556  -0.0248889   0.3951592
   12   -0.0248889   0.0016556   0.0000482   0.0016556  -0.0248889

             6           7           8           9          10

    6    4.9374931
    7   -0.0248889   0.6022649
    8    0.0016556  -0.0038896   0.6022649
    9    0.0000482  -0.0000674  -0.0038896   0.6022649
   10    0.0016556   0.0000062  -0.0000674  -0.0038896   0.6022649
   11   -0.0248889  -0.0000674   0.0000062  -0.0000674  -0.0038896
   12    0.3951592  -0.0038896  -0.0000674   0.0000062  -0.0000674

            11          12

   11    0.6022649
   12   -0.0038896   0.6022649

          TOTAL MULLIKEN AND LOWDIN ATOMIC POPULATIONS
       ATOM         MULL.POP.    CHARGE          LOW.POP.     CHARGE
    1 C             6.056902   -0.056902         6.027582   -0.027582
    2 C             6.056902   -0.056902         6.027582   -0.027582
    3 C             6.056902   -0.056902         6.027582   -0.027582
    4 C             6.056902   -0.056902         6.027582   -0.027582
    5 C             6.056902   -0.056902         6.027582   -0.027582
    6 C             6.056902   -0.056902         6.027582   -0.027582
    7 H             0.943098    0.056902         0.972418    0.027582
    8 H             0.943098    0.056902         0.972418    0.027582
    9 H             0.943098    0.056902         0.972418    0.027582
   10 H             0.943098    0.056902         0.972418    0.027582
   11 H             0.943098    0.056902         0.972418    0.027582
   12 H             0.943098    0.056902         0.972418    0.027582

          -------------------------------
          BOND ORDER AND VALENCE ANALYSIS     BOND ORDER THRESHOLD=0.050
          -------------------------------

                   BOND                       BOND                       BOND
  ATOM PAIR DIST  ORDER      ATOM PAIR DIST  ORDER      ATOM PAIR DIST  ORDER
    1   2  1.398  1.072        1   6  1.398  1.072        1   7  1.082  0.973
    2   3  1.398  1.072        2   8  1.082  0.973        3   4  1.398  1.072
    3   9  1.082  0.973        4   5  1.398  1.072        4  10  1.082  0.973
    5   6  1.398  1.072        5  11  1.082  0.973        6  12  1.082  0.973

                       TOTAL       BONDED        FREE
      ATOM            VALENCE     VALENCE     VALENCE
    1 C                 3.980       3.144       0.836
    2 C                 3.980       3.144       0.836
    3 C                 3.980       3.144       0.836
    4 C                 3.980       3.144       0.836
    5 C                 3.980       3.144       0.836
    6 C                 3.980       3.144       0.836
    7 H                 0.997       0.997       0.000
    8 H                 0.997       0.997      -0.000
    9 H                 0.997       0.997      -0.000
   10 H                 0.997       0.997      -0.000
   11 H                 0.997       0.997       0.000
   12 H                 0.997       0.997       0.000

          ---------------------
          ELECTROSTATIC MOMENTS
          ---------------------

 POINT   1           X           Y           Z (BOHR)    CHARGE
                -0.000000   -0.000000    0.000000       -0.00 (A.U.)
         DX          DY          DZ         /D/  (DEBYE)
     0.000000   -0.000000    0.000000    0.000000
 ...... END OF PROPERTY EVALUATION ......
 STEP CPU TIME =     0.00 TOTAL CPU TIME =        1.0 (    0.0 MIN)
 TOTAL WALL CLOCK TIME=        1.1 SECONDS, CPU UTILIZATION IS  96.30%
               580000  WORDS OF DYNAMIC MEMORY USED
 EXECUTION OF GAMESS TERMINATED NORMALLY Mon Oct 14 07:30:08 2013
 DDI: 263624 bytes (0.3 MB / 0 MWords) used by master data server.

 ----------------------------------------
 CPU timing information for all processes
 ========================================
 0: 1.20 + 0.28 = 1.48
 ----------------------------------------
 ddikick.x: exited gracefully.
unset echo
----- accounting info -----
Files used on the master node titch-64 were:
-rw-r--r-- 1 brian brian    2728 Oct 14 07:30 /scr/brian/exam-vb24.F05
-rw-rw-r-- 1 brian brian 1620144 Oct 14 07:30 /scr/brian/exam-vb24.F08
-rw-rw-r-- 1 brian brian 1537840 Oct 14 07:30 /scr/brian/exam-vb24.F10
-rw-rw-r-- 1 brian brian     176 Oct 14 07:30 /scr/brian/exam-vb24.TEMP02
-rw-rw-r-- 1 brian brian     176 Oct 14 07:30 /scr/brian/exam-vb24.TEMP03
-rw-rw-r-- 1 brian brian    1856 Oct 14 07:30 /scr/brian/exam-vb24.TEMP04
-rw-rw-r-- 1 brian brian    7452 Oct 14 07:30 /scr/brian/exam-vb24.V80
-rw-rw-r-- 1 brian brian       0 Oct 14 07:30 /scr/brian/exam-vb24.V82
-rw-rw-r-- 1 brian brian       0 Oct 14 07:30 /scr/brian/exam-vb24.V83
-rw-rw-r-- 1 brian brian   12456 Oct 14 07:30 /scr/brian/exam-vb24.V84
-rw-rw-r-- 1 brian brian 3145464 Oct 14 07:30 /scr/brian/exam-vb24.V85
-rw-rw-r-- 1 brian brian  196592 Oct 14 07:30 /scr/brian/exam-vb24.V86
-rw-rw-r-- 1 brian brian  393184 Oct 14 07:30 /scr/brian/exam-vb24.V87
-rw-rw-r-- 1 brian brian    5048 Oct 14 07:30 /scr/brian/exam-vb24.V88
-rw-rw-r-- 1 brian brian       0 Oct 14 07:30 /scr/brian/exam-vb24.V89
ls: No match.
ls: No match.
ls: No match.
Mon Oct 14 07:30:11 EST 2013
0.084u 0.020s 0:04.25 2.3%	0+0k 8+24io 0pf+0w
