----- GAMESS execution script 'rungms' -----
This job is running on host titch-64
under operating system Linux at Mon Oct 14 07:28:32 EST 2013
Available scratch disk space (Kbyte units) at beginning of the job is
Filesystem     1K-blocks      Used Available Use% Mounted on
/dev/sda1      945022356 138267440 758750564  16% /
GAMESS temporary binary files will be written to /scr/brian
GAMESS supplementary output files will be written to /home/brian/scr
Copying input file exam-vb10.inp to your run's scratch directory...
cp tests/exam-vb10.inp /scr/brian/exam-vb10.F05
unset echo
/home/brian/qchem/gamess/ddikick.x /home/brian/qchem/gamess/gamess.01.x exam-vb10 -ddi 1 1 titch-64 -scr /scr/brian

 Distributed Data Interface kickoff program.
 Initiating 1 compute processes on 1 nodes to run the following command:
 /home/brian/qchem/gamess/gamess.01.x exam-vb10 

          ******************************************************
          *         GAMESS VERSION =  1 MAY 2013 (R1)          *
          *             FROM IOWA STATE UNIVERSITY             *
          * M.W.SCHMIDT, K.K.BALDRIDGE, J.A.BOATZ, S.T.ELBERT, *
          *   M.S.GORDON, J.H.JENSEN, S.KOSEKI, N.MATSUNAGA,   *
          *          K.A.NGUYEN, S.J.SU, T.L.WINDUS,           *
          *       TOGETHER WITH M.DUPUIS, J.A.MONTGOMERY       *
          *         J.COMPUT.CHEM.  14, 1347-1363(1993)        *
          **************** 64 BIT LINUX VERSION ****************

  SINCE 1993, STUDENTS AND POSTDOCS WORKING AT IOWA STATE UNIVERSITY
  AND ALSO IN THEIR VARIOUS JOBS AFTER LEAVING ISU HAVE MADE IMPORTANT
  CONTRIBUTIONS TO THE CODE:
     IVANA ADAMOVIC, CHRISTINE AIKENS, YURI ALEXEEV, POOJA ARORA,
     ANDREY ASADCHEV, ROB BELL, PRADIPTA BANDYOPADHYAY, JONATHAN BENTZ,
     BRETT BODE, GALINA CHABAN, WEI CHEN, CHEOL HO CHOI, PAUL DAY,
     ALBERT DEFUSCO, TIM DUDLEY, DMITRI FEDOROV, GRAHAM FLETCHER,
     MARK FREITAG, KURT GLAESEMANN, DAN KEMP, GRANT MERRILL,
     NORIYUKI MINEZAWA, JONATHAN MULLIN, TAKESHI NAGATA,
     SEAN NEDD, HEATHER NETZLOFF, BOSILJKA NJEGIC, RYAN OLSON, MIKE PAK,
     JIM SHOEMAKER, LYUDMILA SLIPCHENKO, SAROM SOK, JIE SONG,
     TETSUYA TAKETSUGU, SIMON WEBB, SOOHAENG YOO, FEDERICO ZAHARIEV

  ADDITIONAL CODE HAS BEEN PROVIDED BY COLLABORATORS IN OTHER GROUPS:
     IOWA STATE UNIVERSITY:
          JOE IVANIC, LAIMUTIS BYTAUTAS, KLAUS RUEDENBERG
     UNIVERSITY OF TOKYO: KIMIHIKO HIRAO, TAKAHITO NAKAJIMA,
          TAKAO TSUNEDA, MUNEAKI KAMIYA, SUSUMU YANAGISAWA,
          KIYOSHI YAGI, MAHITO CHIBA, SEIKEN TOKURA, NAOAKI KAWAKAMI
     UNIVERSITY OF AARHUS: FRANK JENSEN
     UNIVERSITY OF IOWA: VISVALDAS KAIRYS, HUI LI
     NATIONAL INST. OF STANDARDS AND TECHNOLOGY: WALT STEVENS, DAVID GARMER
     UNIVERSITY OF PISA: BENEDETTA MENNUCCI, JACOPO TOMASI
     UNIVERSITY OF MEMPHIS: HENRY KURTZ, PRAKASHAN KORAMBATH
     UNIVERSITY OF ALBERTA: TOBY ZENG, MARIUSZ KLOBUKOWSKI
     UNIVERSITY OF NEW ENGLAND: MARK SPACKMAN
     MIE UNIVERSITY: HIROAKI UMEDA
     MICHIGAN STATE UNIVERSITY:
          KAROL KOWALSKI, MARTA WLOCH, JEFFREY GOUR, JESSE LUTZ,
          WEI LI, PIOTR PIECUCH
     UNIVERSITY OF SILESIA: MONIKA MUSIAL, STANISLAW KUCHARSKI
     FACULTES UNIVERSITAIRES NOTRE-DAME DE LA PAIX:
          OLIVIER QUINET, BENOIT CHAMPAGNE
     UNIVERSITY OF CALIFORNIA - SANTA BARBARA: BERNARD KIRTMAN
     INSTITUTE FOR MOLECULAR SCIENCE:
          KAZUYA ISHIMURA, MICHIO KATOUDA, AND SHIGERU NAGASE
     UNIVERSITY OF NOTRE DAME: DAN CHIPMAN
     KYUSHU UNIVERSITY:
          HARUYUKI NAKANO,
          FENG LONG GU, JACEK KORCHOWIEC, MARCIN MAKOWSKI, AND YURIKO AOKI,
          HIROTOSHI MORI AND EISAKU MIYOSHI
     PENNSYLVANIA STATE UNIVERSITY:
          TZVETELIN IORDANOV, CHET SWALINA, JONATHAN SKONE,
          SHARON HAMMES-SCHIFFER
     WASEDA UNIVERSITY:
          MASATO KOBAYASHI, TOMOKO AKAMA, TSUGUKI TOUMA,
          TAKESHI YOSHIKAWA, YASUHIRO IKABATA, HIROMI NAKAI
     NANJING UNIVERSITY: SHUHUA LI
     UNIVERSITY OF NEBRASKA:
          PEIFENG SU, DEJUN SI, NANDUN THELLAMUREGE, YALI WANG, HUI LI
     UNIVERSITY OF ZURICH:
          ROBERTO PEVERATI, KIM BALDRIDGE
     N. COPERNICUS UNIVERSITY AND JACKSON STATE UNIVERSITY:
          MARIA BARYSZ

 EXECUTION OF GAMESS BEGUN Mon Oct 14 07:28:32 2013

            ECHO OF THE FIRST FEW INPUT CARDS -
 INPUT CARD>! GAMESS/VB2000 Test 10.                                                        
 INPUT CARD>! This run is a very simple reaction path VB2000 test, that takes water         
 INPUT CARD>! from a bent structure up to the linear TS for bending. It is rather           
 INPUT CARD>! artificial but runs reasonably quickly. It also illustrates several           
 INPUT CARD>! points that have to be taken into consideration in reaction path runs.        
 INPUT CARD>! The maximum number if macroiterations almost certainly needs to be            
 INPUT CARD>! increased. It is also essential to increase the number of rotations           
 INPUT CARD>! using $ROTATION to at least 2 and probably to 3. If these do not give         
 INPUT CARD>! convergence you are probably taking too few points on the path, so            
 INPUT CARD>! increase the number of points.                                                
 INPUT CARD>!                                                                               
 INPUT CARD>! The initial Gamess run at the starting bent structure gives the               
 INPUT CARD>! final RHF energy:                                                             
 INPUT CARD>!                                                                               
 INPUT CARD>!  RHF ENERGY IS -74.9630286444 AFTER  11 ITERATIONS                            
 INPUT CARD>!                                                                               
 INPUT CARD>! The final path is:-                                                           
 INPUT CARD>!                                                                               
 INPUT CARD>! Energy profile                                                                
 INPUT CARD>!           1           2           3           4           5           6       
 INPUT CARD>!   -75.00340   -74.99796   -74.99109   -74.98306   -74.97413   -74.96457       
 INPUT CARD>!           7           8           9          10          11          12       
 INPUT CARD>!   -74.95463   -74.94455   -74.93452   -74.92472   -74.91529   -74.90635       
 INPUT CARD>!          13          14          15          16          17                   
 INPUT CARD>!   -74.89806   -74.89061   -74.88413   -74.87879   -74.87484                   
 INPUT CARD>!                                                                               
 INPUT CARD>!      1|                                                                       
 INPUT CARD>!      2|**                                                                     
 INPUT CARD>!      3|****                                                                   
 INPUT CARD>!      4|*******                                                                
 INPUT CARD>!      5|***********                                                            
 INPUT CARD>!      6|***************                                                        
 INPUT CARD>!      7|******************                                                     
 INPUT CARD>!      8|**********************                                                 
 INPUT CARD>!      9|**************************                                             
 INPUT CARD>!     10|******************************                                         
 INPUT CARD>!     11|**********************************                                     
 INPUT CARD>!     12|*************************************                                  
 INPUT CARD>!     13|****************************************                               
 INPUT CARD>!     14|*******************************************                            
 INPUT CARD>!     15|**********************************************                         
 INPUT CARD>!     16|************************************************                       
 INPUT CARD>!     17|**************************************************                     
 INPUT CARD>!                                                                               
 INPUT CARD>! The VB dipole moment is calculated only at the last point and is zero.        
 INPUT CARD>!                                                                               
 INPUT CARD>! A full *.xyz file is punched allowing an animation of the path.               
 INPUT CARD>!                                                                               
 INPUT CARD> $CONTRL SCFTYP=RHF COORD=UNIQUE VBTYP=VB2000 $END                              
 INPUT CARD> $SYSTEM TIMLIM=20 MEMORY=2000000 $END                                          
    2000000 WORDS OF MEMORY AVAILABLE

     BASIS OPTIONS
     -------------
     GBASIS=STO          IGAUSS=       3      POLAR=NONE    
     NDFUNC=       0     NFFUNC=       0     DIFFSP=       F
     NPFUNC=       0      DIFFS=       F     BASNAM=        


     RUN TITLE
     ---------
 Water STO-3G                                                                    

 THE POINT GROUP OF THE MOLECULE IS C1      
 THE ORDER OF THE PRINCIPAL AXIS IS     0

 ATOM      ATOMIC                      COORDINATES (BOHR)
           CHARGE         X                   Y                   Z
 OXYGEN      8.0     0.0000000000        0.0000000000        0.0000000000
 HYDROGEN    1.0     0.0000000000       -1.4309295127        1.1083914219
 HYDROGEN    1.0     0.0000000000        1.4309295127        1.1083914219

          INTERNUCLEAR DISTANCES (ANGS.)
          ------------------------------

                1 OXYG       2 HYDR       3 HYDR  

   1 OXYG    0.0000000    0.9578095 *  0.9578095 *
   2 HYDR    0.9578095 *  0.0000000    1.5144307 *
   3 HYDR    0.9578095 *  1.5144307 *  0.0000000  

  * ... LESS THAN  3.000


     ATOMIC BASIS SET
     ----------------
 THE CONTRACTED PRIMITIVE FUNCTIONS HAVE BEEN UNNORMALIZED
 THE CONTRACTED BASIS FUNCTIONS ARE NOW NORMALIZED TO UNITY

  SHELL TYPE  PRIMITIVE        EXPONENT          CONTRACTION COEFFICIENT(S)

 OXYGEN    

      1   S       1           130.7093214    0.154328967295
      1   S       2            23.8088661    0.535328142282
      1   S       3             6.4436083    0.444634542185

      2   L       4             5.0331513   -0.099967229187    0.155916274999
      2   L       5             1.1695961    0.399512826089    0.607683718598
      2   L       6             0.3803890    0.700115468880    0.391957393099

 HYDROGEN  

      3   S       7             3.4252509    0.154328967295
      3   S       8             0.6239137    0.535328142282
      3   S       9             0.1688554    0.444634542185

 HYDROGEN  

      4   S      10             3.4252509    0.154328967295
      4   S      11             0.6239137    0.535328142282
      4   S      12             0.1688554    0.444634542185

 TOTAL NUMBER OF BASIS SET SHELLS             =    4
 NUMBER OF CARTESIAN GAUSSIAN BASIS FUNCTIONS =    7
 NUMBER OF ELECTRONS                          =   10
 CHARGE OF MOLECULE                           =    0
 SPIN MULTIPLICITY                            =    1
 NUMBER OF OCCUPIED ORBITALS (ALPHA)          =    5
 NUMBER OF OCCUPIED ORBITALS (BETA )          =    5
 TOTAL NUMBER OF ATOMS                        =    3
 THE NUCLEAR REPULSION ENERGY IS        9.1892146195

     $CONTRL OPTIONS
     ---------------
 SCFTYP=RHF          RUNTYP=ENERGY       EXETYP=RUN     
 MPLEVL=       0     CITYP =NONE         CCTYP =NONE         VBTYP =VB2000  
 DFTTYP=NONE         TDDFT =NONE    
 MULT  =       1     ICHARG=       0     NZVAR =       0     COORD =UNIQUE  
 PP    =NONE         RELWFN=NONE         LOCAL =NONE         NUMGRD=       F
 ISPHER=      -1     NOSYM =       0     MAXIT =      30     UNITS =ANGS    
 PLTORB=       F     MOLPLT=       F     AIMPAC=       F     FRIEND=        
 NPRINT=       7     IREST =       0     GEOM  =INPUT   
 NORMF =       0     NORMP =       0     ITOL  =      20     ICUT  =       9
 INTTYP=BEST         GRDTYP=BEST         QMTTOL= 1.0E-06

     $SYSTEM OPTIONS
     ---------------
  REPLICATED MEMORY=     2000000 WORDS (ON EVERY NODE).
 DISTRIBUTED MEMDDI=           0 MILLION WORDS IN AGGREGATE,
 MEMDDI DISTRIBUTED OVER   1 PROCESSORS IS           0 WORDS/PROCESSOR.
 TOTAL MEMORY REQUESTED ON EACH PROCESSOR=     2000000 WORDS.
 TIMLIM=          20.00 MINUTES, OR       0.0 DAYS.
 PARALL= F  BALTYP=  DLB     KDIAG=    0  COREFL= F
 MXSEQ2=     300 MXSEQ3=     150

          ----------------
          PROPERTIES INPUT
          ----------------

     MOMENTS            FIELD           POTENTIAL          DENSITY
 IEMOM =       1   IEFLD =       0   IEPOT =       0   IEDEN =       0
 WHERE =COMASS     WHERE =NUCLEI     WHERE =NUCLEI     WHERE =NUCLEI  
 OUTPUT=BOTH       OUTPUT=BOTH       OUTPUT=BOTH       OUTPUT=BOTH    
 IEMINT=       0   IEFINT=       0                     IEDINT=       0
                                                       MORB  =       0
          EXTRAPOLATION IN EFFECT
 ORBITAL PRINTING OPTION: NPREO=     1     7     2     1

     -------------------------------
     INTEGRAL TRANSFORMATION OPTIONS
     -------------------------------
     NWORD  =            0
     CUTOFF = 1.0E-09     MPTRAN =       0
     DIRTRF =       F     AOINTS =DUP     

          ----------------------
          INTEGRAL INPUT OPTIONS
          ----------------------
 NOPK  =       1 NORDER=       0 SCHWRZ=       F

     ------------------------------------------
     THE POINT GROUP IS C1 , NAXIS= 0, ORDER= 1
     ------------------------------------------

     DIMENSIONS OF THE SYMMETRY SUBSPACES ARE
 A   =    7

 ..... DONE SETTING UP THE RUN .....
 STEP CPU TIME =     0.01 TOTAL CPU TIME =        0.0 (    0.0 MIN)
 TOTAL WALL CLOCK TIME=        0.0 SECONDS, CPU UTILIZATION IS 100.00%

          ********************
          1 ELECTRON INTEGRALS
          ********************
 ...... END OF ONE-ELECTRON INTEGRALS ......
 STEP CPU TIME =     0.00 TOTAL CPU TIME =        0.0 (    0.0 MIN)
 TOTAL WALL CLOCK TIME=        0.0 SECONDS, CPU UTILIZATION IS 100.00%

          -------------
          GUESS OPTIONS
          -------------
          GUESS =HUCKEL            NORB  =       0          NORDER=       0
          MIX   =       F          PRTMO =       F          PUNMO =       F
          TOLZ  = 1.0E-08          TOLE  = 1.0E-05
          SYMDEN=       F          PURIFY=       F

 INITIAL GUESS ORBITALS GENERATED BY HUCKEL   ROUTINE.
 HUCKEL GUESS REQUIRES      2569 WORDS.

 SYMMETRIES FOR INITIAL GUESS ORBITALS FOLLOW.   BOTH SET(S).
     5 ORBITALS ARE OCCUPIED (    1 CORE ORBITALS).
     2=A        3=A        4=A        5=A        6=A        7=A   
 ...... END OF INITIAL ORBITAL SELECTION ......
 STEP CPU TIME =     0.00 TOTAL CPU TIME =        0.0 (    0.0 MIN)
 TOTAL WALL CLOCK TIME=        0.0 SECONDS, CPU UTILIZATION IS  50.00%

                    ----------------------
                    AO INTEGRAL TECHNOLOGY
                    ----------------------
     S,P,L SHELL ROTATED AXIS INTEGRALS, REPROGRAMMED BY
        KAZUYA ISHIMURA (IMS) AND JOSE SIERRA (SYNSTAR).
     S,P,D,L SHELL ROTATED AXIS INTEGRALS PROGRAMMED BY
        KAZUYA ISHIMURA (INSTITUTE FOR MOLECULAR SCIENCE).
     S,P,D,F,G SHELL TO TOTAL QUARTET ANGULAR MOMENTUM SUM 5,
        ERIC PROGRAM BY GRAHAM FLETCHER (ELORET AND NASA ADVANCED
        SUPERCOMPUTING DIVISION, AMES RESEARCH CENTER).
     S,P,D,F,G,L SHELL GENERAL RYS QUADRATURE PROGRAMMED BY
        MICHEL DUPUIS (PACIFIC NORTHWEST NATIONAL LABORATORY).

          --------------------
          2 ELECTRON INTEGRALS
          --------------------

 THE -PK- OPTION IS OFF, THE INTEGRALS ARE NOT IN SUPERMATRIX FORM.
 STORING   15000 INTEGRALS/RECORD ON DISK, USING 12 BYTES/INTEGRAL.
 TWO ELECTRON INTEGRAL EVALUATION REQUIRES   89366 WORDS OF MEMORY.
 II,JST,KST,LST =  1  1  1  1 NREC =         1 INTLOC =    1
 II,JST,KST,LST =  2  1  1  1 NREC =         1 INTLOC =    2
 II,JST,KST,LST =  3  1  1  1 NREC =         1 INTLOC =   34
 II,JST,KST,LST =  4  1  1  1 NREC =         1 INTLOC =  109
 TOTAL NUMBER OF NONZERO TWO-ELECTRON INTEGRALS =                 228
          1 INTEGRAL RECORDS WERE STORED ON DISK FILE  8.
  ...... END OF TWO-ELECTRON INTEGRALS .....
 STEP CPU TIME =     0.01 TOTAL CPU TIME =        0.0 (    0.0 MIN)
 TOTAL WALL CLOCK TIME=        0.0 SECONDS, CPU UTILIZATION IS  66.67%

          --------------------------
                 RHF SCF CALCULATION
          --------------------------

     NUCLEAR ENERGY =         9.1892146195
     MAXIT =   30     NPUNCH=    2
     EXTRAP=T  DAMP=F  SHIFT=F  RSTRCT=F  DIIS=F  DEM=F  SOSCF=F
     DENSITY MATRIX CONV=  1.00E-05
     MEMORY REQUIRED FOR RHF ITERS=     30441 WORDS.

 ITER EX DEM     TOTAL ENERGY        E CHANGE  DENSITY CHANGE    DIIS ERROR
   1  0  0      -74.7971658034   -74.7971658034   0.600125587   0.000000000
   2  1  0      -74.9496032744    -0.1524374710   0.182106101   0.000000000
   3  2  0      -74.9615728174    -0.0119695430   0.059940932   0.000000000
   4  3  0      -74.9628229606    -0.0012501432   0.020350363   0.000000000
   5  0  0      -74.9629942716    -0.0001713110   0.021682075   0.000000000
   6  1  0      -74.9629973083    -0.0000030367   0.005612289   0.000000000
   7  2  0      -74.9630227577    -0.0000254494   0.002505909   0.000000000
   8  3  0      -74.9630275378    -0.0000047801   0.001082459   0.000000000
   9  0  0      -74.9630284364    -0.0000008986   0.000828337   0.000000000
  10  1  0      -74.9630286444    -0.0000002080   0.000001489   0.000000000
  11  2  0      -74.9630286444    -0.0000000000   0.000000486   0.000000000

          -----------------
          DENSITY CONVERGED
          -----------------
     TIME TO FORM FOCK OPERATORS=       0.0 SECONDS (       0.0 SEC/ITER)
     TIME TO SOLVE SCF EQUATIONS=       0.0 SECONDS (       0.0 SEC/ITER)

 FINAL RHF ENERGY IS      -74.9630286444 AFTER  11 ITERATIONS

          ------------
          EIGENVECTORS
          ------------

                      1          2          3          4          5
                  -20.2419    -1.2681    -0.6175    -0.4530    -0.3912
                     A          A          A          A          A   
    1  O  1  S    0.994131  -0.232806   0.000000   0.103172  -0.000000
    2  O  1  S    0.026549   0.833706   0.000000  -0.536794  -0.000000
    3  O  1  X   -0.000000  -0.000000   0.000000  -0.000000   1.000000
    4  O  1  Y   -0.000000  -0.000000   0.606480  -0.000000  -0.000000
    5  O  1  Z    0.004342   0.129432   0.000000   0.776477  -0.000000
    6  H  2  S   -0.005965   0.158673  -0.445066   0.278119  -0.000000
    7  H  3  S   -0.005965   0.158673   0.445066   0.278119  -0.000000

                      6          7
                    0.6051     0.7416
                     A          A   
    1  O  1  S   -0.132286   0.000000
    2  O  1  S    0.883597   0.000000
    3  O  1  X    0.000000   0.000000
    4  O  1  Y    0.000000   0.990128
    5  O  1  Z    0.742510   0.000000
    6  H  2  S   -0.796671   0.838170
    7  H  3  S   -0.796671  -0.838170
 ...... END OF RHF CALCULATION ......
 STEP CPU TIME =     0.00 TOTAL CPU TIME =        0.0 (    0.0 MIN)
 TOTAL WALL CLOCK TIME=        0.0 SECONDS, CPU UTILIZATION IS  66.67%

     ----------------------------------------------------------------
     PROPERTY VALUES FOR THE RHF   SELF-CONSISTENT FIELD WAVEFUNCTION
     ----------------------------------------------------------------

          -----------------
          ENERGY COMPONENTS
          -----------------

         WAVEFUNCTION NORMALIZATION =       1.0000000000

                ONE ELECTRON ENERGY =    -122.3608474293
                TWO ELECTRON ENERGY =      38.2086041654
           NUCLEAR REPULSION ENERGY =       9.1892146195
                                      ------------------
                       TOTAL ENERGY =     -74.9630286444

 ELECTRON-ELECTRON POTENTIAL ENERGY =      38.2086041654
  NUCLEUS-ELECTRON POTENTIAL ENERGY =    -196.9483338170
   NUCLEUS-NUCLEUS POTENTIAL ENERGY =       9.1892146195
                                      ------------------
             TOTAL POTENTIAL ENERGY =    -149.5505150321
               TOTAL KINETIC ENERGY =      74.5874863877
                 VIRIAL RATIO (V/T) =       2.0050349231

  ...... PI ENERGY ANALYSIS ......

 ENERGY ANALYSIS:
            FOCK ENERGY=    -45.9436391437
          BARE H ENERGY=   -122.3608474293
     ELECTRONIC ENERGY =    -84.1522432865
         KINETIC ENERGY=     74.5874863877
          N-N REPULSION=      9.1892146195
           TOTAL ENERGY=    -74.9630286670
        SIGMA PART(1+2)=    -76.3038658202
               (K,V1,2)=     69.5300239357   -176.9765889685     31.1426992126
           PI PART(1+2)=     -7.8483774663
               (K,V1,2)=      5.0574624520    -19.9717448485      7.0659049301
  SIGMA SKELETON, ERROR=    -67.1146512007      0.0000000000
             MIXED PART= 0.00000E+00 0.00000E+00 0.00000E+00 0.00000E+00
 ...... END OF PI ENERGY ANALYSIS ......

          ---------------------------------------
          MULLIKEN AND LOWDIN POPULATION ANALYSES
          ---------------------------------------

     ATOMIC MULLIKEN POPULATION IN EACH MOLECULAR ORBITAL

                      1          2          3          4          5

                  2.000000   2.000000   2.000000   2.000000   2.000000

    1             2.001426   1.611113   1.071296   1.681879   2.000000
    2            -0.000713   0.194444   0.464352   0.159061   0.000000
    3            -0.000713   0.194444   0.464352   0.159061   0.000000

               ----- POPULATIONS IN EACH AO -----
                             MULLIKEN      LOWDIN
              1  O  1  S      1.99761     1.99602
              2  O  1  S      1.82966     1.67607
              3  O  1  X      2.00000     2.00000
              4  O  1  Y      1.07130     1.10075
              5  O  1  Z      1.46715     1.48017
              6  H  2  S      0.81714     0.87350
              7  H  3  S      0.81714     0.87350

          ----- MULLIKEN ATOMIC OVERLAP POPULATIONS -----
          (OFF-DIAGONAL ELEMENTS NEED TO BE MULTIPLIED BY 2)

             1           2           3

    1    7.8379108
    2    0.2639012   0.6012941
    3    0.2639012  -0.0480520   0.6012941

          TOTAL MULLIKEN AND LOWDIN ATOMIC POPULATIONS
       ATOM         MULL.POP.    CHARGE          LOW.POP.     CHARGE
    1 OXYGEN        8.365713   -0.365713         8.253001   -0.253001
    2 HYDROGEN      0.817143    0.182857         0.873500    0.126500
    3 HYDROGEN      0.817143    0.182857         0.873500    0.126500

          -------------------------------
          BOND ORDER AND VALENCE ANALYSIS     BOND ORDER THRESHOLD=0.050
          -------------------------------

                   BOND                       BOND                       BOND
  ATOM PAIR DIST  ORDER      ATOM PAIR DIST  ORDER      ATOM PAIR DIST  ORDER
    1   2  0.958  0.954        1   3  0.958  0.954

                       TOTAL       BONDED        FREE
      ATOM            VALENCE     VALENCE     VALENCE
    1 OXYGEN            1.908       1.908      -0.000
    2 HYDROGEN          0.967       0.967       0.000
    3 HYDROGEN          0.967       0.967      -0.000

          ---------------------
          ELECTROSTATIC MOMENTS
          ---------------------

 POINT   1           X           Y           Z (BOHR)    CHARGE
                 0.000000    0.000000    0.124046        0.00 (A.U.)
         DX          DY          DZ         /D/  (DEBYE)
     0.000000   -0.000000    1.725288    1.725288
 ...... END OF PROPERTY EVALUATION ......
 STEP CPU TIME =     0.00 TOTAL CPU TIME =        0.0 (    0.0 MIN)
 TOTAL WALL CLOCK TIME=        0.0 SECONDS, CPU UTILIZATION IS  66.67%

 **************************************************************
 *                                                            *
 *         ENTERING VB2000 INTERFACED INTO GAMESS(US)         *
 *                                                            *
 **************************************************************

 **************************************************************
 *                                                            *
 *                        V B 2 0 0 0                         *
 *                                                            *
 *       An ab initio Valence-Bond Program Based on the       *
 *           Generalized Product Function Method and          *
 *                   the Algebrant Algorithm                  *
 *                                                            *
 *                   Version 2.7 October 2013                 *
 *                      GAMESS(US) Version                    *
 *                     Compiler: gfortran                     *
 *                                                            *
 *         Jiabo Li*, Brian Duke** and Roy McWeeny***         *
 *                                                            *
 *        * SciNet Technologies, 9943 Fieldthorn St.,         *
 *                   San Diego, CA 92127, USA                 *
 *                                                            *
 *  ** Monash University Institute of Pharmaceutical Sciences,*
 *     381 Royal Pde, Parkville, Victoria, 3052, Australia    *
 *                                                            *
 * *** Department of Chemistry, University of Pisa,           *
 *     56100 Pisa, Italy                                      *
 *                                                            *
 *  Reference for the software:                               *
 *     Jiabo Li, Brian Duke, and Roy McWeeny, VB2000 Version  *
 *     2.7, SciNet Technologies, San Diego, CA, 2013          *
 *     URL: http://www.scinetec.com or http://www.vb2000.net  *
 *                                                            *
 *  References for the theory:                                *
 *     General:                                               *
 *     Jiabo Li, and Roy McWeeny, "VB2000: Pushing Valence    *
 *     Bond Theory to New Limits", Int. J. Quantum Chem.,     *
 *     89(2002)208-216.                                       *
 *                                                            *
 *     Spin densities:-                                       *
 *     Jiabo Li, Brian J. Duke, Thomas M. Klapoetke, and Roy  *
 *     McWeeny, Spin-Density of Spin-Free Valence Bond Wave   *
 *     Functions and Its Implementation in VB2000. J. Theor.  *
 *     Comp. Chem. 7(2008)853-867.                            *
 *                                                            *
 *     Spin coupled - n electrons in m orbitals:-             *
 *     Peter B. Karadakov, David L. Cooper, Brian J. Duke,    *
 *     and Jiabo Li, Spin-Coupled Theory for N Electrons in   *
 *     M Orbitals Active Spaces,  J. Phys. Chem. A, 116,      *
 *     7238 - 7244, 2012                                      *
 *                                                            *
 *  Copyright (C) 2000-2013 by SciNet Technologies            *
 **************************************************************

 JOB NAME IS exam-vb10                                                       

 VB2000 DIRECTORY IS: /home/brian/qchem/gamess/vb2000                                                 
 MAXIMUM MEMORY USE IS:     6500000
 THIS IS TAKEN AS THE MAXIMUM OF THE UNUSED MEMORY REQUESTED
 IN GAMESS $SYSTEM BLOCK AND MEMORY REQUESTED IN VB2000 DATA



           Chemical Reaction Calculation
 ================================================
 Number of intermediate structures:          2
 Number of LST points bewteen structures:   15
 IRESTART IN REACTOR=                    0

 REACTOR POINT:  1

 Input of molecule
 =================
 #! VB(4)/STO-3G                                                                 
                                                                                 
 Title: TEST REACTION MECHANISM: H2O bent to linear                                     

 Charge =  0 Multiplicity =  1

 ATOM      ATOMIC                      COORDINATES (ANGS)
           CHARGE         X                   Y                   Z
 OXYGEN      8.0     0.0000000000        0.0000000000       -0.3910236825
 HYDROGEN    1.0     0.0000000000       -0.7572153434        0.1955118412
 HYDROGEN    1.0     0.0000000000        0.7572153434        0.1955118412

 Hartree-Fock Energy from Gamess run =     -74.963028644388

 Basis set size =    7

 BASIS IN $BASIS IS STO      WITH IGAUSS = 3

 VBO LIB IS: /home/brian/qchem/gamess/vb2000/VBOLIB/VBOLIBSTO-nG                             

 PARTITIONING OF LMOs INTO GROUPS ($LMOGRP)
 =======================================================================
 LMO#     1  2  3  4  5
 Group#   1  1  1  2  2
 Split    0  0  0  1  1




      GENERAL CONTROLS ($GENCTL)
 ====================================
 Number of electron groups       =    2
 Maximum macro-iterations        =   30
 Energy threshold           = 10**(- 6)
 Restart calculation(0/1/2)      =    0
 Group#                     1  2
 Num. of electrons          6  4
 Num. of spins              0  0
 Num. of orbitals           3  4
 Method#                    1  2

 SYMBOLIC VB STRUCTURE(S) OF GROUP  2
 STR. NO.       RUMER PATTERN  
    1           1  2   3  4


 MAP FILE IS: /home/brian/qchem/gamess/vb2000/MAP/MAP0400t                                    

 ENERGY AND DIFF OF MACROITER    1 =    -75.00275268    -75.00275268

 ENERGY AND DIFF OF MACROITER    2 =    -75.00337095     -0.00061827

 ENERGY AND DIFF OF MACROITER    3 =    -75.00339980     -0.00002885

 ENERGY AND DIFF OF MACROITER    4 =    -75.00340202     -0.00000222

 ENERGY AND DIFF OF MACROITER    5 =    -75.00340254     -0.00000053


 OVERLAP MATRIX OF VB ORBITALS FOR GROUP   2

        1      2      3      4
 ===============================
   1 1.0000
   2 0.8025 1.0000
   3-0.1676-0.0980 1.0000
   4-0.0980-0.0401 0.8025 1.0000

 ENERGY AND DIFF OF MACROITER    6 =    -75.00340268     -0.00000014


 MULLIKEN CHARGES ON ATOMS
 -------------------------
  ATOM             CHARGE 

    1            -0.34446
    2             0.17223
    3             0.17223

 -------------------------


 ORBITALS OF EACH ELECTRON GROUP IN AO BASIS: ORBITAL(GROUP)
 ===========================================================================
    Orbital#             1         2         3         4         5         6
      Group#             1         1         1         2         2         2
 ---------------------------------------------------------------------------
  AO# LABELS
   1  1  O     s  -1.02578   0.01893   0.00001  -0.05218   0.00787   0.05218
   2  1  O     s   0.23874   0.96931  -0.00001   0.17268  -0.21885  -0.17268
   3  1  O     x   0.00001   0.00001   1.00000   0.00000   0.00000  -0.00000
   4  1  O     y   0.00000   0.00000  -0.00000   0.58268   0.18203   0.58268
   5  1  O     z  -0.08012  -0.27698   0.00000   0.69668   0.32674  -0.69668
   6  2  H     s   0.00184  -0.01650   0.00000  -0.02787  -0.07324  -0.15080
   7  3  H     s   0.00184  -0.01650   0.00000   0.15080   0.87867   0.02787

 ===========================================================================
    Orbital#             7
      Group#             2
 ---------------------------------------------------------------------------
  AO# LABELS
   1  1  O     s  -0.00787
   2  1  O     s   0.21885
   3  1  O     x  -0.00000
   4  1  O     y   0.18203
   5  1  O     z  -0.32674
   6  2  H     s  -0.87867
   7  3  H     s   0.07324


 CALCULATION OF POSITION AND EXTENT OF VB ORBITALS

 DEFAULT CENTROIDS AND EXTENTS.

 MOLECULAR GEOMETRY ABOUT CENTER OF MASS

  Atom#   ATOMIC NO.     X        Y        Z
    1         8        0.0000   0.0000  -0.0656
    2         1        0.0000  -0.7572   0.5209
    3         1        0.0000   0.7572   0.5209

 CENTROIDS OF CHARGE FOR EACH VB GROUP & DISTANCES FROM 3 ATOMS

                                                  DISTANCES FROM ATOMS
 Orbital#   Group#       X        Y        Z        1        2        3
    4         2        0.0000   0.1505   0.0865   0.2139   1.0063   0.7462
    5         2        0.0000   0.6170   0.4263   0.7891   1.3774   0.1692
    6         2        0.0000  -0.1505   0.0865   0.2139   0.7462   1.0063
    7         2        0.0000  -0.6170   0.4263   0.7891   0.1692   1.3774

 EXTENT OF ORBITAL MEASURED BY (<R**2>)

 Orbital#   Group#     <X**2>   <Y**2>   <Z**2>   <R**2> Sqrt<R**2>

    4         2        0.0935   0.1741   0.1792   0.4469   0.6685
    5         2        0.1527   0.2582   0.2239   0.6348   0.7967
    6         2        0.0935   0.1741   0.1792   0.4469   0.6685
    7         2        0.1527   0.2582   0.2239   0.6348   0.7967

 WORDS OF DYNAMIC MEMORY USED IN VB2000 CODE ONLY:        7428
 NOTE THAT THIS IS IN ADDITION TO MEMORY USED BY GAMESS
 PRINTED NEAR END OF OUTPUT. ADD THE TWO AMOUNTS TO GIVE
 THE TOTAL MEMORY USED BY THE JOB

 STATISTICS OF CPU TIMES (SECONDS)
 CPU TIME FOR INITIALIZATION        0.000
 CPU TIME FOR MACROITERATION        0.050
 TOTAL CPU TIME                     0.050


 REACTOR POINT:  2


 RECALCULATING NUCLEAR REPULSION ENERGY, 1-EL AND 2-EL INTEGRALS

 THE NUCLEAR REPULSION ENERGY IS         9.2725973981


  CHARGE                    COORDINATES (ANGSTROMs)
                X                   Y                   Z
   8.0     0.0000000000        0.0000000000       -0.3665847023
   1.0     0.0000000000       -0.7723893844        0.1832923512
   1.0     0.0000000000        0.7723893844        0.1832923512

          ********************
          1 ELECTRON INTEGRALS
          ********************
 ...... END OF ONE-ELECTRON INTEGRALS ......
 STEP CPU TIME =     0.11 TOTAL CPU TIME =        0.1 (    0.0 MIN)
 TOTAL WALL CLOCK TIME=        0.1 SECONDS, CPU UTILIZATION IS  92.86%

          --------------------
          2 ELECTRON INTEGRALS
          --------------------

 THE -PK- OPTION IS OFF, THE INTEGRALS ARE NOT IN SUPERMATRIX FORM.
 STORING   15000 INTEGRALS/RECORD ON DISK, USING 12 BYTES/INTEGRAL.
 TWO ELECTRON INTEGRAL EVALUATION REQUIRES   89366 WORDS OF MEMORY.
 II,JST,KST,LST =  1  1  1  1 NREC =         1 INTLOC =    1
 II,JST,KST,LST =  2  1  1  1 NREC =         1 INTLOC =    2
 II,JST,KST,LST =  3  1  1  1 NREC =         1 INTLOC =   34
 II,JST,KST,LST =  4  1  1  1 NREC =         1 INTLOC =  109
 TOTAL NUMBER OF NONZERO TWO-ELECTRON INTEGRALS =                 228
          1 INTEGRAL RECORDS WERE STORED ON DISK FILE  8.
  ...... END OF TWO-ELECTRON INTEGRALS .....
 STEP CPU TIME =     0.00 TOTAL CPU TIME =        0.1 (    0.0 MIN)
 TOTAL WALL CLOCK TIME=        0.1 SECONDS, CPU UTILIZATION IS  92.86%
 Input of molecule
 =================
 #! VB(4)/STO-3G                                                                 
  GUESS=READ                                                                     
                                                                                 
 Title: TEST REACTION MECHANISM: H2O bent to linear                                     

 Charge =  0 Multiplicity =  1

 ATOM      ATOMIC                      COORDINATES (ANGS)
           CHARGE         X                   Y                   Z
 OXYGEN      8.0     0.0000000000        0.0000000000       -0.3665847023
 HYDROGEN    1.0     0.0000000000       -0.7723893844        0.1832923512
 HYDROGEN    1.0     0.0000000000        0.7723893844        0.1832923512
 Basis set size =    7

      GENERAL CONTROLS ($GENCTL)
 ====================================
 Number of electron groups       =    2
 Maximum macro-iterations        =   30
 Energy threshold           = 10**(- 6)
 Restart calculation(0/1/2)      =    1
 Group#                     1  2
 Num. of electrons          6  4
 Num. of spins              0  0
 Num. of orbitals           3  4
 Method#                    1  2

 SYMBOLIC VB STRUCTURE(S) OF GROUP  2
 STR. NO.       RUMER PATTERN  
    1           1  2   3  4


 MAP FILE IS: /home/brian/qchem/gamess/vb2000/MAP/MAP0400t                                    

 ENERGY AND DIFF OF MACROITER    1 =    -74.99788024    -74.99788024

 ENERGY AND DIFF OF MACROITER    2 =    -74.99793995     -0.00005971

 ENERGY AND DIFF OF MACROITER    3 =    -74.99795124     -0.00001129

 ENERGY AND DIFF OF MACROITER    4 =    -74.99795420     -0.00000296

 ENERGY AND DIFF OF MACROITER    5 =    -74.99795494     -0.00000074


 OVERLAP MATRIX OF VB ORBITALS FOR GROUP   2

        1      2      3      4
 ===============================
   1 1.0000
   2 0.8073 1.0000
   3-0.1749-0.0930 1.0000
   4-0.0930-0.0333 0.8073 1.0000

 ENERGY AND DIFF OF MACROITER    6 =    -74.99795514     -0.00000020


 MULLIKEN CHARGES ON ATOMS
 -------------------------
  ATOM             CHARGE 

    1            -0.36098
    2             0.18049
    3             0.18049

 -------------------------


 ORBITALS OF EACH ELECTRON GROUP IN AO BASIS: ORBITAL(GROUP)
 ===========================================================================
    Orbital#             1         2         3         4         5         6
      Group#             1         1         1         2         2         2
 ---------------------------------------------------------------------------
  AO# LABELS
   1  1  O     s   1.02533  -0.00764  -0.00001  -0.05928   0.00295   0.05928
   2  1  O     s  -0.22368  -0.96475   0.00001   0.20356  -0.20203  -0.20356
   3  1  O     x   0.00001   0.00001   1.00000   0.00000   0.00000  -0.00000
   4  1  O     y  -0.00000  -0.00000  -0.00000   0.57663   0.18330   0.57663
   5  1  O     z   0.08376   0.30704  -0.00000   0.69640   0.33384  -0.69640
   6  2  H     s  -0.00169   0.01870  -0.00000  -0.03588  -0.07182  -0.14542
   7  3  H     s  -0.00169   0.01870  -0.00000   0.14542   0.87174   0.03588

 ===========================================================================
    Orbital#             7
      Group#             2
 ---------------------------------------------------------------------------
  AO# LABELS
   1  1  O     s  -0.00295
   2  1  O     s   0.20203
   3  1  O     x  -0.00000
   4  1  O     y   0.18330
   5  1  O     z  -0.33384
   6  2  H     s  -0.87174
   7  3  H     s   0.07182


 WORDS OF DYNAMIC MEMORY USED IN VB2000 CODE ONLY:        7428
 NOTE THAT THIS IS IN ADDITION TO MEMORY USED BY GAMESS
 PRINTED NEAR END OF OUTPUT. ADD THE TWO AMOUNTS TO GIVE
 THE TOTAL MEMORY USED BY THE JOB

 STATISTICS OF CPU TIMES (SECONDS)
 CPU TIME FOR INITIALIZATION        0.000
 CPU TIME FOR MACROITERATION        0.040
 TOTAL CPU TIME                     0.040


 REACTOR POINT:  3


 RECALCULATING NUCLEAR REPULSION ENERGY, 1-EL AND 2-EL INTEGRALS

 THE NUCLEAR REPULSION ENERGY IS         9.3429787202


  CHARGE                    COORDINATES (ANGSTROMs)
                X                   Y                   Z
   8.0     0.0000000000        0.0000000000       -0.3421457222
   1.0     0.0000000000       -0.7875634255        0.1710728611
   1.0     0.0000000000        0.7875634255        0.1710728611

          ********************
          1 ELECTRON INTEGRALS
          ********************
 ...... END OF ONE-ELECTRON INTEGRALS ......
 STEP CPU TIME =     0.10 TOTAL CPU TIME =        0.2 (    0.0 MIN)
 TOTAL WALL CLOCK TIME=        0.2 SECONDS, CPU UTILIZATION IS  95.83%

          --------------------
          2 ELECTRON INTEGRALS
          --------------------

 THE -PK- OPTION IS OFF, THE INTEGRALS ARE NOT IN SUPERMATRIX FORM.
 STORING   15000 INTEGRALS/RECORD ON DISK, USING 12 BYTES/INTEGRAL.
 TWO ELECTRON INTEGRAL EVALUATION REQUIRES   89366 WORDS OF MEMORY.
 II,JST,KST,LST =  1  1  1  1 NREC =         1 INTLOC =    1
 II,JST,KST,LST =  2  1  1  1 NREC =         1 INTLOC =    2
 II,JST,KST,LST =  3  1  1  1 NREC =         1 INTLOC =   34
 II,JST,KST,LST =  4  1  1  1 NREC =         1 INTLOC =  109
 TOTAL NUMBER OF NONZERO TWO-ELECTRON INTEGRALS =                 228
          1 INTEGRAL RECORDS WERE STORED ON DISK FILE  8.
  ...... END OF TWO-ELECTRON INTEGRALS .....
 STEP CPU TIME =     0.00 TOTAL CPU TIME =        0.2 (    0.0 MIN)
 TOTAL WALL CLOCK TIME=        0.2 SECONDS, CPU UTILIZATION IS  95.83%
 Input of molecule
 =================
 #! VB(4)/STO-3G                                                                 
  GUESS=READ                                                                     
                                                                                 
 Title: TEST REACTION MECHANISM: H2O bent to linear                                     

 Charge =  0 Multiplicity =  1

 ATOM      ATOMIC                      COORDINATES (ANGS)
           CHARGE         X                   Y                   Z
 OXYGEN      8.0     0.0000000000        0.0000000000       -0.3421457222
 HYDROGEN    1.0     0.0000000000       -0.7875634255        0.1710728611
 HYDROGEN    1.0     0.0000000000        0.7875634255        0.1710728611
 Basis set size =    7

      GENERAL CONTROLS ($GENCTL)
 ====================================
 Number of electron groups       =    2
 Maximum macro-iterations        =   30
 Energy threshold           = 10**(- 6)
 Restart calculation(0/1/2)      =    1
 Group#                     1  2
 Num. of electrons          6  4
 Num. of spins              0  0
 Num. of orbitals           3  4
 Method#                    1  2

 SYMBOLIC VB STRUCTURE(S) OF GROUP  2
 STR. NO.       RUMER PATTERN  
    1           1  2   3  4


 MAP FILE IS: /home/brian/qchem/gamess/vb2000/MAP/MAP0400t                                    

 ENERGY AND DIFF OF MACROITER    1 =    -74.99100438    -74.99100438

 ENERGY AND DIFF OF MACROITER    2 =    -74.99107393     -0.00006954

 ENERGY AND DIFF OF MACROITER    3 =    -74.99108692     -0.00001299

 ENERGY AND DIFF OF MACROITER    4 =    -74.99108968     -0.00000276

 ENERGY AND DIFF OF MACROITER    5 =    -74.99109033     -0.00000065


 OVERLAP MATRIX OF VB ORBITALS FOR GROUP   2

        1      2      3      4
 ===============================
   1 1.0000
   2 0.8114 1.0000
   3-0.1825-0.0894 1.0000
   4-0.0894-0.0297 0.8114 1.0000

 ENERGY AND DIFF OF MACROITER    6 =    -74.99109050     -0.00000017


 MULLIKEN CHARGES ON ATOMS
 -------------------------
  ATOM             CHARGE 

    1            -0.37750
    2             0.18875
    3             0.18875

 -------------------------


 ORBITALS OF EACH ELECTRON GROUP IN AO BASIS: ORBITAL(GROUP)
 ===========================================================================
    Orbital#             1         2         3         4         5         6
      Group#             1         1         1         2         2         2
 ---------------------------------------------------------------------------
  AO# LABELS
   1  1  O     s  -1.02464  -0.00070   0.00001  -0.06692  -0.00237   0.06692
   2  1  O     s   0.21181  -0.95692   0.00001   0.23680  -0.18323  -0.23680
   3  1  O     x  -0.00001  -0.00001  -1.00000   0.00000   0.00000  -0.00000
   4  1  O     y   0.00000  -0.00000   0.00000   0.57058   0.18458   0.57058
   5  1  O     z  -0.08847   0.33931  -0.00000   0.69447   0.34072  -0.69447
   6  2  H     s   0.00156   0.02056  -0.00000  -0.04406  -0.06955  -0.13975
   7  3  H     s   0.00156   0.02056  -0.00000   0.13975   0.86445   0.04406

 ===========================================================================
    Orbital#             7
      Group#             2
 ---------------------------------------------------------------------------
  AO# LABELS
   1  1  O     s   0.00237
   2  1  O     s   0.18323
   3  1  O     x  -0.00000
   4  1  O     y   0.18458
   5  1  O     z  -0.34072
   6  2  H     s  -0.86445
   7  3  H     s   0.06955


 WORDS OF DYNAMIC MEMORY USED IN VB2000 CODE ONLY:        7428
 NOTE THAT THIS IS IN ADDITION TO MEMORY USED BY GAMESS
 PRINTED NEAR END OF OUTPUT. ADD THE TWO AMOUNTS TO GIVE
 THE TOTAL MEMORY USED BY THE JOB

 STATISTICS OF CPU TIMES (SECONDS)
 CPU TIME FOR INITIALIZATION        0.000
 CPU TIME FOR MACROITERATION        0.040
 TOTAL CPU TIME                     0.040


 REACTOR POINT:  4


 RECALCULATING NUCLEAR REPULSION ENERGY, 1-EL AND 2-EL INTEGRALS

 THE NUCLEAR REPULSION ENERGY IS         9.3992093718


  CHARGE                    COORDINATES (ANGSTROMs)
                X                   Y                   Z
   8.0     0.0000000000        0.0000000000       -0.3177067420
   1.0     0.0000000000       -0.8027374665        0.1588533710
   1.0     0.0000000000        0.8027374665        0.1588533710

          ********************
          1 ELECTRON INTEGRALS
          ********************
 ...... END OF ONE-ELECTRON INTEGRALS ......
 STEP CPU TIME =     0.10 TOTAL CPU TIME =        0.3 (    0.0 MIN)
 TOTAL WALL CLOCK TIME=        0.3 SECONDS, CPU UTILIZATION IS  97.06%

          --------------------
          2 ELECTRON INTEGRALS
          --------------------

 THE -PK- OPTION IS OFF, THE INTEGRALS ARE NOT IN SUPERMATRIX FORM.
 STORING   15000 INTEGRALS/RECORD ON DISK, USING 12 BYTES/INTEGRAL.
 TWO ELECTRON INTEGRAL EVALUATION REQUIRES   89366 WORDS OF MEMORY.
 II,JST,KST,LST =  1  1  1  1 NREC =         1 INTLOC =    1
 II,JST,KST,LST =  2  1  1  1 NREC =         1 INTLOC =    2
 II,JST,KST,LST =  3  1  1  1 NREC =         1 INTLOC =   34
 II,JST,KST,LST =  4  1  1  1 NREC =         1 INTLOC =  109
 TOTAL NUMBER OF NONZERO TWO-ELECTRON INTEGRALS =                 228
          1 INTEGRAL RECORDS WERE STORED ON DISK FILE  8.
  ...... END OF TWO-ELECTRON INTEGRALS .....
 STEP CPU TIME =     0.00 TOTAL CPU TIME =        0.3 (    0.0 MIN)
 TOTAL WALL CLOCK TIME=        0.3 SECONDS, CPU UTILIZATION IS  97.06%
 Input of molecule
 =================
 #! VB(4)/STO-3G                                                                 
  GUESS=READ                                                                     
                                                                                 
 Title: TEST REACTION MECHANISM: H2O bent to linear                                     

 Charge =  0 Multiplicity =  1

 ATOM      ATOMIC                      COORDINATES (ANGS)
           CHARGE         X                   Y                   Z
 OXYGEN      8.0     0.0000000000        0.0000000000       -0.3177067420
 HYDROGEN    1.0     0.0000000000       -0.8027374665        0.1588533710
 HYDROGEN    1.0     0.0000000000        0.8027374665        0.1588533710
 Basis set size =    7

      GENERAL CONTROLS ($GENCTL)
 ====================================
 Number of electron groups       =    2
 Maximum macro-iterations        =   30
 Energy threshold           = 10**(- 6)
 Restart calculation(0/1/2)      =    1
 Group#                     1  2
 Num. of electrons          6  4
 Num. of spins              0  0
 Num. of orbitals           3  4
 Method#                    1  2

 SYMBOLIC VB STRUCTURE(S) OF GROUP  2
 STR. NO.       RUMER PATTERN  
    1           1  2   3  4


 MAP FILE IS: /home/brian/qchem/gamess/vb2000/MAP/MAP0400t                                    

 ENERGY AND DIFF OF MACROITER    1 =    -74.98296471    -74.98296471

 ENERGY AND DIFF OF MACROITER    2 =    -74.98304208     -0.00007737

 ENERGY AND DIFF OF MACROITER    3 =    -74.98305624     -0.00001416

 ENERGY AND DIFF OF MACROITER    4 =    -74.98305930     -0.00000306

 ENERGY AND DIFF OF MACROITER    5 =    -74.98306004     -0.00000074


 OVERLAP MATRIX OF VB ORBITALS FOR GROUP   2

        1      2      3      4
 ===============================
   1 1.0000
   2 0.8147 1.0000
   3-0.1904-0.0860 1.0000
   4-0.0860-0.0261 0.8147 1.0000

 ENERGY AND DIFF OF MACROITER    6 =    -74.98306024     -0.00000020


 MULLIKEN CHARGES ON ATOMS
 -------------------------
  ATOM             CHARGE 

    1            -0.39369
    2             0.19685
    3             0.19685

 -------------------------


 ORBITALS OF EACH ELECTRON GROUP IN AO BASIS: ORBITAL(GROUP)
 ===========================================================================
    Orbital#             1         2         3         4         5         6
      Group#             1         1         1         2         2         2
 ---------------------------------------------------------------------------
  AO# LABELS
   1  1  O     s   1.02381  -0.00064  -0.00001  -0.07472  -0.00770   0.07472
   2  1  O     s  -0.20550  -0.94538   0.00001   0.27083  -0.16358  -0.27083
   3  1  O     x   0.00001   0.00001   1.00000   0.00000   0.00000  -0.00000
   4  1  O     y  -0.00000  -0.00000  -0.00000   0.56472   0.18621   0.56472
   5  1  O     z   0.09509   0.37212  -0.00000   0.69101   0.34678  -0.69101
   6  2  H     s  -0.00148   0.02172  -0.00000  -0.05190  -0.06749  -0.13383
   7  3  H     s  -0.00148   0.02172  -0.00000   0.13383   0.85721   0.05190

 ===========================================================================
    Orbital#             7
      Group#             2
 ---------------------------------------------------------------------------
  AO# LABELS
   1  1  O     s   0.00770
   2  1  O     s   0.16358
   3  1  O     x  -0.00000
   4  1  O     y   0.18621
   5  1  O     z  -0.34678
   6  2  H     s  -0.85721
   7  3  H     s   0.06749


 WORDS OF DYNAMIC MEMORY USED IN VB2000 CODE ONLY:        7428
 NOTE THAT THIS IS IN ADDITION TO MEMORY USED BY GAMESS
 PRINTED NEAR END OF OUTPUT. ADD THE TWO AMOUNTS TO GIVE
 THE TOTAL MEMORY USED BY THE JOB

 STATISTICS OF CPU TIMES (SECONDS)
 CPU TIME FOR INITIALIZATION        0.000
 CPU TIME FOR MACROITERATION        0.040
 TOTAL CPU TIME                     0.040


 REACTOR POINT:  5


 RECALCULATING NUCLEAR REPULSION ENERGY, 1-EL AND 2-EL INTEGRALS

 THE NUCLEAR REPULSION ENERGY IS         9.4403141320


  CHARGE                    COORDINATES (ANGSTROMs)
                X                   Y                   Z
   8.0     0.0000000000        0.0000000000       -0.2932677619
   1.0     0.0000000000       -0.8179115075        0.1466338809
   1.0     0.0000000000        0.8179115075        0.1466338809

          ********************
          1 ELECTRON INTEGRALS
          ********************
 ...... END OF ONE-ELECTRON INTEGRALS ......
 STEP CPU TIME =     0.10 TOTAL CPU TIME =        0.4 (    0.0 MIN)
 TOTAL WALL CLOCK TIME=        0.4 SECONDS, CPU UTILIZATION IS  97.73%

          --------------------
          2 ELECTRON INTEGRALS
          --------------------

 THE -PK- OPTION IS OFF, THE INTEGRALS ARE NOT IN SUPERMATRIX FORM.
 STORING   15000 INTEGRALS/RECORD ON DISK, USING 12 BYTES/INTEGRAL.
 TWO ELECTRON INTEGRAL EVALUATION REQUIRES   89366 WORDS OF MEMORY.
 II,JST,KST,LST =  1  1  1  1 NREC =         1 INTLOC =    1
 II,JST,KST,LST =  2  1  1  1 NREC =         1 INTLOC =    2
 II,JST,KST,LST =  3  1  1  1 NREC =         1 INTLOC =   34
 II,JST,KST,LST =  4  1  1  1 NREC =         1 INTLOC =  109
 TOTAL NUMBER OF NONZERO TWO-ELECTRON INTEGRALS =                 228
          1 INTEGRAL RECORDS WERE STORED ON DISK FILE  8.
  ...... END OF TWO-ELECTRON INTEGRALS .....
 STEP CPU TIME =     0.00 TOTAL CPU TIME =        0.4 (    0.0 MIN)
 TOTAL WALL CLOCK TIME=        0.4 SECONDS, CPU UTILIZATION IS  97.73%
 Input of molecule
 =================
 #! VB(4)/STO-3G                                                                 
  GUESS=READ                                                                     
                                                                                 
 Title: TEST REACTION MECHANISM: H2O bent to linear                                     

 Charge =  0 Multiplicity =  1

 ATOM      ATOMIC                      COORDINATES (ANGS)
           CHARGE         X                   Y                   Z
 OXYGEN      8.0     0.0000000000        0.0000000000       -0.2932677619
 HYDROGEN    1.0     0.0000000000       -0.8179115075        0.1466338809
 HYDROGEN    1.0     0.0000000000        0.8179115075        0.1466338809
 Basis set size =    7

      GENERAL CONTROLS ($GENCTL)
 ====================================
 Number of electron groups       =    2
 Maximum macro-iterations        =   30
 Energy threshold           = 10**(- 6)
 Restart calculation(0/1/2)      =    1
 Group#                     1  2
 Num. of electrons          6  4
 Num. of spins              0  0
 Num. of orbitals           3  4
 Method#                    1  2

 SYMBOLIC VB STRUCTURE(S) OF GROUP  2
 STR. NO.       RUMER PATTERN  
    1           1  2   3  4


 MAP FILE IS: /home/brian/qchem/gamess/vb2000/MAP/MAP0400t                                    

 ENERGY AND DIFF OF MACROITER    1 =    -74.97402248    -74.97402248

 ENERGY AND DIFF OF MACROITER    2 =    -74.97410955     -0.00008707

 ENERGY AND DIFF OF MACROITER    3 =    -74.97412603     -0.00001648

 ENERGY AND DIFF OF MACROITER    4 =    -74.97412983     -0.00000380

 ENERGY AND DIFF OF MACROITER    5 =    -74.97413079     -0.00000096


 OVERLAP MATRIX OF VB ORBITALS FOR GROUP   2

        1      2      3      4
 ===============================
   1 1.0000
   2 0.8172 1.0000
   3-0.1999-0.0839 1.0000
   4-0.0839-0.0229 0.8172 1.0000

 ENERGY AND DIFF OF MACROITER    6 =    -74.97413106     -0.00000027


 MULLIKEN CHARGES ON ATOMS
 -------------------------
  ATOM             CHARGE 

    1            -0.40946
    2             0.20473
    3             0.20473

 -------------------------


 ORBITALS OF EACH ELECTRON GROUP IN AO BASIS: ORBITAL(GROUP)
 ===========================================================================
    Orbital#             1         2         3         4         5         6
      Group#             1         1         1         2         2         2
 ---------------------------------------------------------------------------
  AO# LABELS
   1  1  O     s   1.02286  -0.00654  -0.00001  -0.08266  -0.01305   0.08266
   2  1  O     s  -0.20367  -0.93029   0.00001   0.30543  -0.14309  -0.30543
   3  1  O     x   0.00001   0.00001   1.00000   0.00000   0.00000  -0.00000
   4  1  O     y  -0.00000  -0.00000  -0.00000   0.55871   0.18795   0.55871
   5  1  O     z   0.10380   0.40518  -0.00000   0.68624   0.35229  -0.68624
   6  2  H     s  -0.00145   0.02204  -0.00000  -0.05907  -0.06578  -0.12770
   7  3  H     s  -0.00145   0.02204  -0.00000   0.12770   0.85000   0.05907

 ===========================================================================
    Orbital#             7
      Group#             2
 ---------------------------------------------------------------------------
  AO# LABELS
   1  1  O     s   0.01305
   2  1  O     s   0.14309
   3  1  O     x  -0.00000
   4  1  O     y   0.18795
   5  1  O     z  -0.35229
   6  2  H     s  -0.85000
   7  3  H     s   0.06578


 WORDS OF DYNAMIC MEMORY USED IN VB2000 CODE ONLY:        7428
 NOTE THAT THIS IS IN ADDITION TO MEMORY USED BY GAMESS
 PRINTED NEAR END OF OUTPUT. ADD THE TWO AMOUNTS TO GIVE
 THE TOTAL MEMORY USED BY THE JOB

 STATISTICS OF CPU TIMES (SECONDS)
 CPU TIME FOR INITIALIZATION        0.000
 CPU TIME FOR MACROITERATION        0.040
 TOTAL CPU TIME                     0.040


 REACTOR POINT:  6


 RECALCULATING NUCLEAR REPULSION ENERGY, 1-EL AND 2-EL INTEGRALS

 THE NUCLEAR REPULSION ENERGY IS         9.4655308789


  CHARGE                    COORDINATES (ANGSTROMs)
                X                   Y                   Z
   8.0     0.0000000000        0.0000000000       -0.2688287817
   1.0     0.0000000000       -0.8330855486        0.1344143908
   1.0     0.0000000000        0.8330855486        0.1344143908

          ********************
          1 ELECTRON INTEGRALS
          ********************
 ...... END OF ONE-ELECTRON INTEGRALS ......
 STEP CPU TIME =     0.10 TOTAL CPU TIME =        0.5 (    0.0 MIN)
 TOTAL WALL CLOCK TIME=        0.5 SECONDS, CPU UTILIZATION IS  98.15%

          --------------------
          2 ELECTRON INTEGRALS
          --------------------

 THE -PK- OPTION IS OFF, THE INTEGRALS ARE NOT IN SUPERMATRIX FORM.
 STORING   15000 INTEGRALS/RECORD ON DISK, USING 12 BYTES/INTEGRAL.
 TWO ELECTRON INTEGRAL EVALUATION REQUIRES   89366 WORDS OF MEMORY.
 II,JST,KST,LST =  1  1  1  1 NREC =         1 INTLOC =    1
 II,JST,KST,LST =  2  1  1  1 NREC =         1 INTLOC =    2
 II,JST,KST,LST =  3  1  1  1 NREC =         1 INTLOC =   34
 II,JST,KST,LST =  4  1  1  1 NREC =         1 INTLOC =  109
 TOTAL NUMBER OF NONZERO TWO-ELECTRON INTEGRALS =                 228
          1 INTEGRAL RECORDS WERE STORED ON DISK FILE  8.
  ...... END OF TWO-ELECTRON INTEGRALS .....
 STEP CPU TIME =     0.00 TOTAL CPU TIME =        0.5 (    0.0 MIN)
 TOTAL WALL CLOCK TIME=        0.5 SECONDS, CPU UTILIZATION IS  98.15%
 Input of molecule
 =================
 #! VB(4)/STO-3G                                                                 
  GUESS=READ                                                                     
                                                                                 
 Title: TEST REACTION MECHANISM: H2O bent to linear                                     

 Charge =  0 Multiplicity =  1

 ATOM      ATOMIC                      COORDINATES (ANGS)
           CHARGE         X                   Y                   Z
 OXYGEN      8.0     0.0000000000        0.0000000000       -0.2688287817
 HYDROGEN    1.0     0.0000000000       -0.8330855486        0.1344143908
 HYDROGEN    1.0     0.0000000000        0.8330855486        0.1344143908
 Basis set size =    7

      GENERAL CONTROLS ($GENCTL)
 ====================================
 Number of electron groups       =    2
 Maximum macro-iterations        =   30
 Energy threshold           = 10**(- 6)
 Restart calculation(0/1/2)      =    1
 Group#                     1  2
 Num. of electrons          6  4
 Num. of spins              0  0
 Num. of orbitals           3  4
 Method#                    1  2

 SYMBOLIC VB STRUCTURE(S) OF GROUP  2
 STR. NO.       RUMER PATTERN  
    1           1  2   3  4


 MAP FILE IS: /home/brian/qchem/gamess/vb2000/MAP/MAP0400t                                    

 ENERGY AND DIFF OF MACROITER    1 =    -74.96444415    -74.96444415

 ENERGY AND DIFF OF MACROITER    2 =    -74.96454285     -0.00009869

 ENERGY AND DIFF OF MACROITER    3 =    -74.96456307     -0.00002023

 ENERGY AND DIFF OF MACROITER    4 =    -74.96456823     -0.00000515

 ENERGY AND DIFF OF MACROITER    5 =    -74.96456964     -0.00000142

 ENERGY AND DIFF OF MACROITER    6 =    -74.96457008     -0.00000044


 OVERLAP MATRIX OF VB ORBITALS FOR GROUP   2

        1      2      3      4
 ===============================
   1 1.0000
   2 0.8189 1.0000
   3-0.2127-0.0845 1.0000
   4-0.0845-0.0208 0.8189 1.0000

 ENERGY AND DIFF OF MACROITER    7 =    -74.96457021     -0.00000013


 MULLIKEN CHARGES ON ATOMS
 -------------------------
  ATOM             CHARGE 

    1            -0.42482
    2             0.21241
    3             0.21241

 -------------------------


 ORBITALS OF EACH ELECTRON GROUP IN AO BASIS: ORBITAL(GROUP)
 ===========================================================================
    Orbital#             1         2         3         4         5         6
      Group#             1         1         1         2         2         2
 ---------------------------------------------------------------------------
  AO# LABELS
   1  1  O     s  -1.02165   0.01870   0.00001  -0.09085  -0.01852   0.09085
   2  1  O     s   0.20623   0.91132  -0.00001   0.34083  -0.12131  -0.34083
   3  1  O     x   0.00001   0.00001   1.00000  -0.00000  -0.00000   0.00000
   4  1  O     y   0.00000   0.00000   0.00000   0.55207   0.18943   0.55207
   5  1  O     z  -0.11531  -0.43843   0.00000   0.68036   0.35762  -0.68036
   6  2  H     s   0.00149  -0.02146   0.00000  -0.06522  -0.06452  -0.12135
   7  3  H     s   0.00149  -0.02146   0.00000   0.12135   0.84264   0.06522

 ===========================================================================
    Orbital#             7
      Group#             2
 ---------------------------------------------------------------------------
  AO# LABELS
   1  1  O     s   0.01852
   2  1  O     s   0.12131
   3  1  O     x   0.00000
   4  1  O     y   0.18943
   5  1  O     z  -0.35762
   6  2  H     s  -0.84264
   7  3  H     s   0.06452


 WORDS OF DYNAMIC MEMORY USED IN VB2000 CODE ONLY:        7428
 NOTE THAT THIS IS IN ADDITION TO MEMORY USED BY GAMESS
 PRINTED NEAR END OF OUTPUT. ADD THE TWO AMOUNTS TO GIVE
 THE TOTAL MEMORY USED BY THE JOB

 STATISTICS OF CPU TIMES (SECONDS)
 CPU TIME FOR INITIALIZATION        0.000
 CPU TIME FOR MACROITERATION        0.040
 TOTAL CPU TIME                     0.040


 REACTOR POINT:  7


 RECALCULATING NUCLEAR REPULSION ENERGY, 1-EL AND 2-EL INTEGRALS

 THE NUCLEAR REPULSION ENERGY IS         9.4743426171


  CHARGE                    COORDINATES (ANGSTROMs)
                X                   Y                   Z
   8.0     0.0000000000        0.0000000000       -0.2443898015
   1.0     0.0000000000       -0.8482595896        0.1221949008
   1.0     0.0000000000        0.8482595896        0.1221949008

          ********************
          1 ELECTRON INTEGRALS
          ********************
 ...... END OF ONE-ELECTRON INTEGRALS ......
 STEP CPU TIME =     0.11 TOTAL CPU TIME =        0.6 (    0.0 MIN)
 TOTAL WALL CLOCK TIME=        0.6 SECONDS, CPU UTILIZATION IS  98.46%

          --------------------
          2 ELECTRON INTEGRALS
          --------------------

 THE -PK- OPTION IS OFF, THE INTEGRALS ARE NOT IN SUPERMATRIX FORM.
 STORING   15000 INTEGRALS/RECORD ON DISK, USING 12 BYTES/INTEGRAL.
 TWO ELECTRON INTEGRAL EVALUATION REQUIRES   89366 WORDS OF MEMORY.
 II,JST,KST,LST =  1  1  1  1 NREC =         1 INTLOC =    1
 II,JST,KST,LST =  2  1  1  1 NREC =         1 INTLOC =    2
 II,JST,KST,LST =  3  1  1  1 NREC =         1 INTLOC =   34
 II,JST,KST,LST =  4  1  1  1 NREC =         1 INTLOC =  109
 TOTAL NUMBER OF NONZERO TWO-ELECTRON INTEGRALS =                 228
          1 INTEGRAL RECORDS WERE STORED ON DISK FILE  8.
  ...... END OF TWO-ELECTRON INTEGRALS .....
 STEP CPU TIME =     0.00 TOTAL CPU TIME =        0.6 (    0.0 MIN)
 TOTAL WALL CLOCK TIME=        0.6 SECONDS, CPU UTILIZATION IS  98.46%
 Input of molecule
 =================
 #! VB(4)/STO-3G                                                                 
  GUESS=READ                                                                     
                                                                                 
 Title: TEST REACTION MECHANISM: H2O bent to linear                                     

 Charge =  0 Multiplicity =  1

 ATOM      ATOMIC                      COORDINATES (ANGS)
           CHARGE         X                   Y                   Z
 OXYGEN      8.0     0.0000000000        0.0000000000       -0.2443898015
 HYDROGEN    1.0     0.0000000000       -0.8482595896        0.1221949008
 HYDROGEN    1.0     0.0000000000        0.8482595896        0.1221949008
 Basis set size =    7

      GENERAL CONTROLS ($GENCTL)
 ====================================
 Number of electron groups       =    2
 Maximum macro-iterations        =   30
 Energy threshold           = 10**(- 6)
 Restart calculation(0/1/2)      =    1
 Group#                     1  2
 Num. of electrons          6  4
 Num. of spins              0  0
 Num. of orbitals           3  4
 Method#                    1  2

 SYMBOLIC VB STRUCTURE(S) OF GROUP  2
 STR. NO.       RUMER PATTERN  
    1           1  2   3  4


 MAP FILE IS: /home/brian/qchem/gamess/vb2000/MAP/MAP0400t                                    

 ENERGY AND DIFF OF MACROITER    1 =    -74.95448454    -74.95448454

 ENERGY AND DIFF OF MACROITER    2 =    -74.95459531     -0.00011077

 ENERGY AND DIFF OF MACROITER    3 =    -74.95462092     -0.00002561

 ENERGY AND DIFF OF MACROITER    4 =    -74.95462839     -0.00000747

 ENERGY AND DIFF OF MACROITER    5 =    -74.95463069     -0.00000230

 ENERGY AND DIFF OF MACROITER    6 =    -74.95463149     -0.00000080


 OVERLAP MATRIX OF VB ORBITALS FOR GROUP   2

        1      2      3      4
 ===============================
   1 1.0000
   2 0.8199 1.0000
   3-0.2294-0.0882 1.0000
   4-0.0882-0.0200 0.8199 1.0000

 ENERGY AND DIFF OF MACROITER    7 =    -74.95463175     -0.00000026


 MULLIKEN CHARGES ON ATOMS
 -------------------------
  ATOM             CHARGE 

    1            -0.43952
    2             0.21976
    3             0.21976

 -------------------------


 ORBITALS OF EACH ELECTRON GROUP IN AO BASIS: ORBITAL(GROUP)
 ===========================================================================
    Orbital#             1         2         3         4         5         6
      Group#             1         1         1         2         2         2
 ---------------------------------------------------------------------------
  AO# LABELS
   1  1  O     s  -1.01993   0.03870   0.00001  -0.09920  -0.02405   0.09920
   2  1  O     s   0.21423   0.88817  -0.00001   0.37660  -0.09840  -0.37660
   3  1  O     x  -0.00001  -0.00001  -1.00000   0.00000   0.00000  -0.00000
   4  1  O     y   0.00000   0.00000   0.00000   0.54470   0.19043   0.54470
   5  1  O     z  -0.13079  -0.47090   0.00000   0.67348   0.36282  -0.67348
   6  2  H     s   0.00161  -0.01991   0.00000  -0.06999  -0.06391  -0.11484
   7  3  H     s   0.00161  -0.01991   0.00000   0.11483   0.83526   0.07000

 ===========================================================================
    Orbital#             7
      Group#             2
 ---------------------------------------------------------------------------
  AO# LABELS
   1  1  O     s   0.02405
   2  1  O     s   0.09839
   3  1  O     x  -0.00000
   4  1  O     y   0.19043
   5  1  O     z  -0.36282
   6  2  H     s  -0.83526
   7  3  H     s   0.06391


 WORDS OF DYNAMIC MEMORY USED IN VB2000 CODE ONLY:        7428
 NOTE THAT THIS IS IN ADDITION TO MEMORY USED BY GAMESS
 PRINTED NEAR END OF OUTPUT. ADD THE TWO AMOUNTS TO GIVE
 THE TOTAL MEMORY USED BY THE JOB

 STATISTICS OF CPU TIMES (SECONDS)
 CPU TIME FOR INITIALIZATION        0.000
 CPU TIME FOR MACROITERATION        0.050
 TOTAL CPU TIME                     0.050


 REACTOR POINT:  8


 RECALCULATING NUCLEAR REPULSION ENERGY, 1-EL AND 2-EL INTEGRALS

 THE NUCLEAR REPULSION ENERGY IS         9.4664998066


  CHARGE                    COORDINATES (ANGSTROMs)
                X                   Y                   Z
   8.0     0.0000000000        0.0000000000       -0.2199508214
   1.0     0.0000000000       -0.8634336307        0.1099754107
   1.0     0.0000000000        0.8634336307        0.1099754107

          ********************
          1 ELECTRON INTEGRALS
          ********************
 ...... END OF ONE-ELECTRON INTEGRALS ......
 STEP CPU TIME =     0.10 TOTAL CPU TIME =        0.7 (    0.0 MIN)
 TOTAL WALL CLOCK TIME=        0.8 SECONDS, CPU UTILIZATION IS  97.37%

          --------------------
          2 ELECTRON INTEGRALS
          --------------------

 THE -PK- OPTION IS OFF, THE INTEGRALS ARE NOT IN SUPERMATRIX FORM.
 STORING   15000 INTEGRALS/RECORD ON DISK, USING 12 BYTES/INTEGRAL.
 TWO ELECTRON INTEGRAL EVALUATION REQUIRES   89366 WORDS OF MEMORY.
 II,JST,KST,LST =  1  1  1  1 NREC =         1 INTLOC =    1
 II,JST,KST,LST =  2  1  1  1 NREC =         1 INTLOC =    2
 II,JST,KST,LST =  3  1  1  1 NREC =         1 INTLOC =   34
 II,JST,KST,LST =  4  1  1  1 NREC =         1 INTLOC =  109
 TOTAL NUMBER OF NONZERO TWO-ELECTRON INTEGRALS =                 228
          1 INTEGRAL RECORDS WERE STORED ON DISK FILE  8.
  ...... END OF TWO-ELECTRON INTEGRALS .....
 STEP CPU TIME =     0.00 TOTAL CPU TIME =        0.7 (    0.0 MIN)
 TOTAL WALL CLOCK TIME=        0.8 SECONDS, CPU UTILIZATION IS  97.37%
 Input of molecule
 =================
 #! VB(4)/STO-3G                                                                 
  GUESS=READ                                                                     
                                                                                 
 Title: TEST REACTION MECHANISM: H2O bent to linear                                     

 Charge =  0 Multiplicity =  1

 ATOM      ATOMIC                      COORDINATES (ANGS)
           CHARGE         X                   Y                   Z
 OXYGEN      8.0     0.0000000000        0.0000000000       -0.2199508214
 HYDROGEN    1.0     0.0000000000       -0.8634336307        0.1099754107
 HYDROGEN    1.0     0.0000000000        0.8634336307        0.1099754107
 Basis set size =    7

      GENERAL CONTROLS ($GENCTL)
 ====================================
 Number of electron groups       =    2
 Maximum macro-iterations        =   30
 Energy threshold           = 10**(- 6)
 Restart calculation(0/1/2)      =    1
 Group#                     1  2
 Num. of electrons          6  4
 Num. of spins              0  0
 Num. of orbitals           3  4
 Method#                    1  2

 SYMBOLIC VB STRUCTURE(S) OF GROUP  2
 STR. NO.       RUMER PATTERN  
    1           1  2   3  4


 MAP FILE IS: /home/brian/qchem/gamess/vb2000/MAP/MAP0400t                                    

 ENERGY AND DIFF OF MACROITER    1 =    -74.94436837    -74.94436837

 ENERGY AND DIFF OF MACROITER    2 =    -74.94449417     -0.00012580

 ENERGY AND DIFF OF MACROITER    3 =    -74.94452834     -0.00003416

 ENERGY AND DIFF OF MACROITER    4 =    -74.94454074     -0.00001240

 ENERGY AND DIFF OF MACROITER    5 =    -74.94454463     -0.00000389

 ENERGY AND DIFF OF MACROITER    6 =    -74.94454615     -0.00000152

 ENERGY AND DIFF OF MACROITER    7 =    -74.94454673     -0.00000058


 OVERLAP MATRIX OF VB ORBITALS FOR GROUP   2

        1      2      3      4
 ===============================
   1 1.0000
   2 0.8205 1.0000
   3-0.2525-0.0978 1.0000
   4-0.0978-0.0225 0.8205 1.0000

 ENERGY AND DIFF OF MACROITER    8 =    -74.94454696     -0.00000023


 MULLIKEN CHARGES ON ATOMS
 -------------------------
  ATOM             CHARGE 

    1            -0.45370
    2             0.22685
    3             0.22685

 -------------------------


 ORBITALS OF EACH ELECTRON GROUP IN AO BASIS: ORBITAL(GROUP)
 ===========================================================================
    Orbital#             1         2         3         4         5         6
      Group#             1         1         1         2         2         2
 ---------------------------------------------------------------------------
  AO# LABELS
   1  1  O     s   1.01697   0.06982  -0.00001  -0.10808  -0.03003   0.10808
   2  1  O     s  -0.22947   0.85932  -0.00001   0.41390  -0.07283  -0.41390
   3  1  O     x   0.00001   0.00001   1.00000   0.00000   0.00000  -0.00000
   4  1  O     y  -0.00000   0.00000  -0.00000   0.53581   0.19032   0.53581
   5  1  O     z   0.15279  -0.50269   0.00001   0.66548   0.36831  -0.66548
   6  2  H     s  -0.00181  -0.01754   0.00000  -0.07282  -0.06391  -0.10810
   7  3  H     s  -0.00181  -0.01754   0.00000   0.10810   0.82745   0.07282

 ===========================================================================
    Orbital#             7
      Group#             2
 ---------------------------------------------------------------------------
  AO# LABELS
   1  1  O     s   0.03003
   2  1  O     s   0.07283
   3  1  O     x  -0.00000
   4  1  O     y   0.19032
   5  1  O     z  -0.36830
   6  2  H     s  -0.82745
   7  3  H     s   0.06391


 WORDS OF DYNAMIC MEMORY USED IN VB2000 CODE ONLY:        7428
 NOTE THAT THIS IS IN ADDITION TO MEMORY USED BY GAMESS
 PRINTED NEAR END OF OUTPUT. ADD THE TWO AMOUNTS TO GIVE
 THE TOTAL MEMORY USED BY THE JOB

 STATISTICS OF CPU TIMES (SECONDS)
 CPU TIME FOR INITIALIZATION        0.000
 CPU TIME FOR MACROITERATION        0.060
 TOTAL CPU TIME                     0.060


 REACTOR POINT:  9


 RECALCULATING NUCLEAR REPULSION ENERGY, 1-EL AND 2-EL INTEGRALS

 THE NUCLEAR REPULSION ENERGY IS         9.4420310805


  CHARGE                    COORDINATES (ANGSTROMs)
                X                   Y                   Z
   8.0     0.0000000000        0.0000000000       -0.1955118412
   1.0     0.0000000000       -0.8786076717        0.0977559206
   1.0     0.0000000000        0.8786076717        0.0977559206

          ********************
          1 ELECTRON INTEGRALS
          ********************
 ...... END OF ONE-ELECTRON INTEGRALS ......
 STEP CPU TIME =     0.12 TOTAL CPU TIME =        0.9 (    0.0 MIN)
 TOTAL WALL CLOCK TIME=        0.9 SECONDS, CPU UTILIZATION IS  98.85%

          --------------------
          2 ELECTRON INTEGRALS
          --------------------

 THE -PK- OPTION IS OFF, THE INTEGRALS ARE NOT IN SUPERMATRIX FORM.
 STORING   15000 INTEGRALS/RECORD ON DISK, USING 12 BYTES/INTEGRAL.
 TWO ELECTRON INTEGRAL EVALUATION REQUIRES   89366 WORDS OF MEMORY.
 II,JST,KST,LST =  1  1  1  1 NREC =         1 INTLOC =    1
 II,JST,KST,LST =  2  1  1  1 NREC =         1 INTLOC =    2
 II,JST,KST,LST =  3  1  1  1 NREC =         1 INTLOC =   34
 II,JST,KST,LST =  4  1  1  1 NREC =         1 INTLOC =  109
 TOTAL NUMBER OF NONZERO TWO-ELECTRON INTEGRALS =                 228
          1 INTEGRAL RECORDS WERE STORED ON DISK FILE  8.
  ...... END OF TWO-ELECTRON INTEGRALS .....
 STEP CPU TIME =     0.00 TOTAL CPU TIME =        0.9 (    0.0 MIN)
 TOTAL WALL CLOCK TIME=        0.9 SECONDS, CPU UTILIZATION IS  98.85%
 Input of molecule
 =================
 #! VB(4)/STO-3G                                                                 
  GUESS=READ                                                                     
                                                                                 
 Title: TEST REACTION MECHANISM: H2O bent to linear                                     

 Charge =  0 Multiplicity =  1

 ATOM      ATOMIC                      COORDINATES (ANGS)
           CHARGE         X                   Y                   Z
 OXYGEN      8.0     0.0000000000        0.0000000000       -0.1955118412
 HYDROGEN    1.0     0.0000000000       -0.8786076717        0.0977559206
 HYDROGEN    1.0     0.0000000000        0.8786076717        0.0977559206
 Basis set size =    7

      GENERAL CONTROLS ($GENCTL)
 ====================================
 Number of electron groups       =    2
 Maximum macro-iterations        =   30
 Energy threshold           = 10**(- 6)
 Restart calculation(0/1/2)      =    1
 Group#                     1  2
 Num. of electrons          6  4
 Num. of spins              0  0
 Num. of orbitals           3  4
 Method#                    1  2

 SYMBOLIC VB STRUCTURE(S) OF GROUP  2
 STR. NO.       RUMER PATTERN  
    1           1  2   3  4


 MAP FILE IS: /home/brian/qchem/gamess/vb2000/MAP/MAP0400t                                    

 ENERGY AND DIFF OF MACROITER    1 =    -74.93429772    -74.93429772

 ENERGY AND DIFF OF MACROITER    2 =    -74.93443704     -0.00013932

 ENERGY AND DIFF OF MACROITER    3 =    -74.93448302     -0.00004598

 ENERGY AND DIFF OF MACROITER    4 =    -74.93450313     -0.00002011

 ENERGY AND DIFF OF MACROITER    5 =    -74.93451093     -0.00000780

 ENERGY AND DIFF OF MACROITER    6 =    -74.93451459     -0.00000367

 ENERGY AND DIFF OF MACROITER    7 =    -74.93451625     -0.00000165

 ENERGY AND DIFF OF MACROITER    8 =    -74.93451705     -0.00000080


 OVERLAP MATRIX OF VB ORBITALS FOR GROUP   2

        1      2      3      4
 ===============================
   1 1.0000
   2 0.8205 1.0000
   3-0.2827-0.1135 1.0000
   4-0.1135-0.0278 0.8205 1.0000

 ENERGY AND DIFF OF MACROITER    9 =    -74.93451742     -0.00000038


 MULLIKEN CHARGES ON ATOMS
 -------------------------
  ATOM             CHARGE 

    1            -0.46714
    2             0.23357
    3             0.23357

 -------------------------


 ORBITALS OF EACH ELECTRON GROUP IN AO BASIS: ORBITAL(GROUP)
 ===========================================================================
    Orbital#             1         2         3         4         5         6
      Group#             1         1         1         2         2         2
 ---------------------------------------------------------------------------
  AO# LABELS
   1  1  O     s  -1.01088  -0.11945   0.00001  -0.11759  -0.03656   0.11759
   2  1  O     s   0.25673  -0.82218   0.00001   0.45315  -0.04411  -0.45315
   3  1  O     x   0.00001   0.00001   1.00000   0.00000   0.00000  -0.00000
   4  1  O     y   0.00000  -0.00000   0.00000   0.52514   0.18909   0.52514
   5  1  O     z  -0.18628   0.53182  -0.00001   0.65592   0.37347  -0.65592
   6  2  H     s   0.00207   0.01449  -0.00000  -0.07350  -0.06480  -0.10119
   7  3  H     s   0.00207   0.01449  -0.00000   0.10119   0.81922   0.07350

 ===========================================================================
    Orbital#             7
      Group#             2
 ---------------------------------------------------------------------------
  AO# LABELS
   1  1  O     s   0.03656
   2  1  O     s   0.04411
   3  1  O     x  -0.00000
   4  1  O     y   0.18909
   5  1  O     z  -0.37347
   6  2  H     s  -0.81922
   7  3  H     s   0.06480


 WORDS OF DYNAMIC MEMORY USED IN VB2000 CODE ONLY:        7428
 NOTE THAT THIS IS IN ADDITION TO MEMORY USED BY GAMESS
 PRINTED NEAR END OF OUTPUT. ADD THE TWO AMOUNTS TO GIVE
 THE TOTAL MEMORY USED BY THE JOB

 STATISTICS OF CPU TIMES (SECONDS)
 CPU TIME FOR INITIALIZATION        0.000
 CPU TIME FOR MACROITERATION        0.050
 TOTAL CPU TIME                     0.050


 REACTOR POINT: 10


 RECALCULATING NUCLEAR REPULSION ENERGY, 1-EL AND 2-EL INTEGRALS

 THE NUCLEAR REPULSION ENERGY IS         9.4012414065


  CHARGE                    COORDINATES (ANGSTROMs)
                X                   Y                   Z
   8.0     0.0000000000        0.0000000000       -0.1710728611
   1.0     0.0000000000       -0.8937817127        0.0855364305
   1.0     0.0000000000        0.8937817127        0.0855364305

          ********************
          1 ELECTRON INTEGRALS
          ********************
 ...... END OF ONE-ELECTRON INTEGRALS ......
 STEP CPU TIME =     0.11 TOTAL CPU TIME =        1.0 (    0.0 MIN)
 TOTAL WALL CLOCK TIME=        1.0 SECONDS, CPU UTILIZATION IS  97.98%

          --------------------
          2 ELECTRON INTEGRALS
          --------------------

 THE -PK- OPTION IS OFF, THE INTEGRALS ARE NOT IN SUPERMATRIX FORM.
 STORING   15000 INTEGRALS/RECORD ON DISK, USING 12 BYTES/INTEGRAL.
 TWO ELECTRON INTEGRAL EVALUATION REQUIRES   89366 WORDS OF MEMORY.
 II,JST,KST,LST =  1  1  1  1 NREC =         1 INTLOC =    1
 II,JST,KST,LST =  2  1  1  1 NREC =         1 INTLOC =    2
 II,JST,KST,LST =  3  1  1  1 NREC =         1 INTLOC =   34
 II,JST,KST,LST =  4  1  1  1 NREC =         1 INTLOC =  109
 TOTAL NUMBER OF NONZERO TWO-ELECTRON INTEGRALS =                 228
          1 INTEGRAL RECORDS WERE STORED ON DISK FILE  8.
  ...... END OF TWO-ELECTRON INTEGRALS .....
 STEP CPU TIME =     0.00 TOTAL CPU TIME =        1.0 (    0.0 MIN)
 TOTAL WALL CLOCK TIME=        1.0 SECONDS, CPU UTILIZATION IS  97.98%
 Input of molecule
 =================
 #! VB(4)/STO-3G                                                                 
  GUESS=READ                                                                     
                                                                                 
 Title: TEST REACTION MECHANISM: H2O bent to linear                                     

 Charge =  0 Multiplicity =  1

 ATOM      ATOMIC                      COORDINATES (ANGS)
           CHARGE         X                   Y                   Z
 OXYGEN      8.0     0.0000000000        0.0000000000       -0.1710728611
[...]
   4  1  O     y   0.16852
   5  1  O     z  -0.23122
   6  2  H     s  -0.75092
   7  3  H     s   0.11231


 WORDS OF DYNAMIC MEMORY USED IN VB2000 CODE ONLY:        7428
 NOTE THAT THIS IS IN ADDITION TO MEMORY USED BY GAMESS
 PRINTED NEAR END OF OUTPUT. ADD THE TWO AMOUNTS TO GIVE
 THE TOTAL MEMORY USED BY THE JOB

 STATISTICS OF CPU TIMES (SECONDS)
 CPU TIME FOR INITIALIZATION        0.000
 CPU TIME FOR MACROITERATION        0.190
 TOTAL CPU TIME                     0.190


 REACTOR POINT: 16


 RECALCULATING NUCLEAR REPULSION ENERGY, 1-EL AND 2-EL INTEGRALS

 THE NUCLEAR REPULSION ENERGY IS         8.8600070947


  CHARGE                    COORDINATES (ANGSTROMs)
                X                   Y                   Z
   8.0     0.0000000000        0.0000000000       -0.0244389802
   1.0     0.0000000000       -0.9848259590        0.0122194901
   1.0     0.0000000000        0.9848259590        0.0122194901

          ********************
          1 ELECTRON INTEGRALS
          ********************
 ...... END OF ONE-ELECTRON INTEGRALS ......
 STEP CPU TIME =     0.24 TOTAL CPU TIME =        2.1 (    0.0 MIN)
 TOTAL WALL CLOCK TIME=        2.2 SECONDS, CPU UTILIZATION IS  99.07%

          --------------------
          2 ELECTRON INTEGRALS
          --------------------

 THE -PK- OPTION IS OFF, THE INTEGRALS ARE NOT IN SUPERMATRIX FORM.
 STORING   15000 INTEGRALS/RECORD ON DISK, USING 12 BYTES/INTEGRAL.
 TWO ELECTRON INTEGRAL EVALUATION REQUIRES   89366 WORDS OF MEMORY.
 II,JST,KST,LST =  1  1  1  1 NREC =         1 INTLOC =    1
 II,JST,KST,LST =  2  1  1  1 NREC =         1 INTLOC =    2
 II,JST,KST,LST =  3  1  1  1 NREC =         1 INTLOC =   34
 II,JST,KST,LST =  4  1  1  1 NREC =         1 INTLOC =  109
 TOTAL NUMBER OF NONZERO TWO-ELECTRON INTEGRALS =                 228
          1 INTEGRAL RECORDS WERE STORED ON DISK FILE  8.
  ...... END OF TWO-ELECTRON INTEGRALS .....
 STEP CPU TIME =     0.00 TOTAL CPU TIME =        2.1 (    0.0 MIN)
 TOTAL WALL CLOCK TIME=        2.2 SECONDS, CPU UTILIZATION IS  99.07%
 Input of molecule
 =================
 #! VB(4)/STO-3G                                                                 
  GUESS=READ                                                                     
                                                                                 
 Title: TEST REACTION MECHANISM: H2O bent to linear                                     

 Charge =  0 Multiplicity =  1

 ATOM      ATOMIC                      COORDINATES (ANGS)
           CHARGE         X                   Y                   Z
 OXYGEN      8.0     0.0000000000        0.0000000000       -0.0244389802
 HYDROGEN    1.0     0.0000000000       -0.9848259590        0.0122194901
 HYDROGEN    1.0     0.0000000000        0.9848259590        0.0122194901
 Basis set size =    7

      GENERAL CONTROLS ($GENCTL)
 ====================================
 Number of electron groups       =    2
 Maximum macro-iterations        =   30
 Energy threshold           = 10**(- 6)
 Restart calculation(0/1/2)      =    1
 Group#                     1  2
 Num. of electrons          6  4
 Num. of spins              0  0
 Num. of orbitals           3  4
 Method#                    1  2

 SYMBOLIC VB STRUCTURE(S) OF GROUP  2
 STR. NO.       RUMER PATTERN  
    1           1  2   3  4


 MAP FILE IS: /home/brian/qchem/gamess/vb2000/MAP/MAP0400t                                    

 ENERGY AND DIFF OF MACROITER    1 =    -74.87782366    -74.87782366

 ENERGY AND DIFF OF MACROITER    2 =    -74.87800810     -0.00018444

 ENERGY AND DIFF OF MACROITER    3 =    -74.87817153     -0.00016343

 ENERGY AND DIFF OF MACROITER    4 =    -74.87831745     -0.00014592

 ENERGY AND DIFF OF MACROITER    5 =    -74.87843537     -0.00011792

 ENERGY AND DIFF OF MACROITER    6 =    -74.87853209     -0.00009672

 ENERGY AND DIFF OF MACROITER    7 =    -74.87860582     -0.00007373

 ENERGY AND DIFF OF MACROITER    8 =    -74.87866294     -0.00005712

 ENERGY AND DIFF OF MACROITER    9 =    -74.87871004     -0.00004710

 ENERGY AND DIFF OF MACROITER   10 =    -74.87874571     -0.00003567

 ENERGY AND DIFF OF MACROITER   11 =    -74.87877376     -0.00002805

 ENERGY AND DIFF OF MACROITER   12 =    -74.87879620     -0.00002243

 ENERGY AND DIFF OF MACROITER   13 =    -74.87881434     -0.00001814

 ENERGY AND DIFF OF MACROITER   14 =    -74.87882908     -0.00001475

 ENERGY AND DIFF OF MACROITER   15 =    -74.87884113     -0.00001205

 ENERGY AND DIFF OF MACROITER   16 =    -74.87885100     -0.00000986

 ENERGY AND DIFF OF MACROITER   17 =    -74.87885910     -0.00000811

 ENERGY AND DIFF OF MACROITER   18 =    -74.87889248     -0.00003337

 ENERGY AND DIFF OF MACROITER   19 =    -74.87889820     -0.00000572

 ENERGY AND DIFF OF MACROITER   20 =    -74.87889823     -0.00000003


 OVERLAP MATRIX OF VB ORBITALS FOR GROUP   2

        1      2      3      4
 ===============================
   1 1.0000
   2 0.7750 1.0000
   3-0.8323-0.4874 1.0000
   4-0.4874-0.0724 0.7750 1.0000

 ENERGY AND DIFF OF MACROITER   21 =    -74.87889823     -0.00000001


 MULLIKEN CHARGES ON ATOMS
 -------------------------
  ATOM             CHARGE 

    1            -0.52947
    2             0.26474
    3             0.26474

 -------------------------


 ORBITALS OF EACH ELECTRON GROUP IN AO BASIS: ORBITAL(GROUP)
 ===========================================================================
    Orbital#             1         2         3         4         5         6
      Group#             1         1         1         2         2         2
 ---------------------------------------------------------------------------
  AO# LABELS
   1  1  O     s   0.99427  -0.05397  -0.00001  -0.23824  -0.12321   0.23824
   2  1  O     s   0.02579   0.21156  -0.00000   0.90514   0.34756  -0.90514
   3  1  O     x   0.00001   0.00001   1.00000   0.00000   0.00000  -0.00000
   4  1  O     y   0.00000   0.00000  -0.00000   0.28996   0.16721   0.28996
   5  1  O     z   0.00017  -0.97888   0.00001   0.19312   0.12004  -0.19312
   6  2  H     s  -0.00582  -0.00148   0.00000   0.06050  -0.12186  -0.05939
   7  3  H     s  -0.00582  -0.00148   0.00000   0.05939   0.74058  -0.06050

 ===========================================================================
    Orbital#             7
      Group#             2
 ---------------------------------------------------------------------------
  AO# LABELS
   1  1  O     s   0.12321
   2  1  O     s  -0.34756
   3  1  O     x  -0.00000
   4  1  O     y   0.16721
   5  1  O     z  -0.12004
   6  2  H     s  -0.74058
   7  3  H     s   0.12186


 WORDS OF DYNAMIC MEMORY USED IN VB2000 CODE ONLY:        7428
 NOTE THAT THIS IS IN ADDITION TO MEMORY USED BY GAMESS
 PRINTED NEAR END OF OUTPUT. ADD THE TWO AMOUNTS TO GIVE
 THE TOTAL MEMORY USED BY THE JOB

 STATISTICS OF CPU TIMES (SECONDS)
 CPU TIME FOR INITIALIZATION        0.010
 CPU TIME FOR MACROITERATION        0.130
 TOTAL CPU TIME                     0.140


 REACTOR POINT: 17


 RECALCULATING NUCLEAR REPULSION ENERGY, 1-EL AND 2-EL INTEGRALS

 THE NUCLEAR REPULSION ENERGY IS         8.7314246085


  CHARGE                    COORDINATES (ANGSTROMs)
                X                   Y                   Z
   8.0     0.0000000000        0.0000000000        0.0000000000
   1.0     0.0000000000       -1.0000000000        0.0000000000
   1.0     0.0000000000        1.0000000000        0.0000000000

          ********************
          1 ELECTRON INTEGRALS
          ********************
 ...... END OF ONE-ELECTRON INTEGRALS ......
 STEP CPU TIME =     0.20 TOTAL CPU TIME =        2.3 (    0.0 MIN)
 TOTAL WALL CLOCK TIME=        2.4 SECONDS, CPU UTILIZATION IS  99.15%

          --------------------
          2 ELECTRON INTEGRALS
          --------------------

 THE -PK- OPTION IS OFF, THE INTEGRALS ARE NOT IN SUPERMATRIX FORM.
 STORING   15000 INTEGRALS/RECORD ON DISK, USING 12 BYTES/INTEGRAL.
 TWO ELECTRON INTEGRAL EVALUATION REQUIRES   89366 WORDS OF MEMORY.
 II,JST,KST,LST =  1  1  1  1 NREC =         1 INTLOC =    1
 II,JST,KST,LST =  2  1  1  1 NREC =         1 INTLOC =    2
 II,JST,KST,LST =  3  1  1  1 NREC =         1 INTLOC =   34
 II,JST,KST,LST =  4  1  1  1 NREC =         1 INTLOC =   84
 TOTAL NUMBER OF NONZERO TWO-ELECTRON INTEGRALS =                 166
          1 INTEGRAL RECORDS WERE STORED ON DISK FILE  8.
  ...... END OF TWO-ELECTRON INTEGRALS .....
 STEP CPU TIME =     0.00 TOTAL CPU TIME =        2.3 (    0.0 MIN)
 TOTAL WALL CLOCK TIME=        2.4 SECONDS, CPU UTILIZATION IS  99.15%
 Input of molecule
 =================
 #! VB(4)/STO-3G                                                                 
  GUESS=READ                                                                     
                                                                                 
 Title: TEST REACTION MECHANISM: H2O bent to linear                                     

 Charge =  0 Multiplicity =  1

 ATOM      ATOMIC                      COORDINATES (ANGS)
           CHARGE         X                   Y                   Z
 OXYGEN      8.0     0.0000000000        0.0000000000        0.0000000000
 HYDROGEN    1.0     0.0000000000       -1.0000000000        0.0000000000
 HYDROGEN    1.0     0.0000000000        1.0000000000        0.0000000000
 Basis set size =    7

      GENERAL CONTROLS ($GENCTL)
 ====================================
 Number of electron groups       =    2
 Maximum macro-iterations        =   30
 Energy threshold           = 10**(- 6)
 Restart calculation(0/1/2)      =    1
 Group#                     1  2
 Num. of electrons          6  4
 Num. of spins              0  0
 Num. of orbitals           3  4
 Method#                    1  2

 SYMBOLIC VB STRUCTURE(S) OF GROUP  2
 STR. NO.       RUMER PATTERN  
    1           1  2   3  4


 MAP FILE IS: /home/brian/qchem/gamess/vb2000/MAP/MAP0400t                                    

 ENERGY AND DIFF OF MACROITER    1 =    -74.87482170    -74.87482170

 ENERGY AND DIFF OF MACROITER    2 =    -74.87484148     -0.00001978

 ENERGY AND DIFF OF MACROITER    3 =    -74.87484148     -0.00000000


 OVERLAP MATRIX OF VB ORBITALS FOR GROUP   2

        1      2      3      4
 ===============================
   1 1.0000
   2 0.7687 1.0000
   3-0.8598-0.5151 1.0000
   4-0.5151-0.0827 0.7687 1.0000

 ENERGY AND DIFF OF MACROITER    4 =    -74.87484148      0.00000000


 MULLIKEN CHARGES ON ATOMS
 -------------------------
  ATOM             CHARGE 

    1            -0.52624
    2             0.26312
    3             0.26312

 -------------------------


 ORBITALS OF EACH ELECTRON GROUP IN AO BASIS: ORBITAL(GROUP)
 ===========================================================================
    Orbital#             1         2         3         4         5         6
      Group#             1         1         1         2         2         2
 ---------------------------------------------------------------------------
  AO# LABELS
   1  1  O     s  -0.99428   0.00001   0.00001  -0.24467  -0.12846   0.24467
   2  1  O     s  -0.02559   0.00000   0.00000   0.92859   0.37344  -0.92859
   3  1  O     x  -0.00000  -0.85174   0.52396   0.00000   0.00000  -0.00000
   4  1  O     y  -0.00000   0.00000   0.00000   0.26864   0.16411   0.26864
   5  1  O     z   0.00001   0.52396   0.85174   0.00000   0.00000  -0.00000
   6  2  H     s   0.00567  -0.00000  -0.00000   0.07070  -0.12269  -0.06034
   7  3  H     s   0.00567  -0.00000  -0.00000   0.06034   0.73646  -0.07070

 ===========================================================================
    Orbital#             7
      Group#             2
 ---------------------------------------------------------------------------
  AO# LABELS
   1  1  O     s   0.12846
   2  1  O     s  -0.37344
   3  1  O     x  -0.00000
   4  1  O     y   0.16411
   5  1  O     z  -0.00000
   6  2  H     s  -0.73646
   7  3  H     s   0.12269


 WORDS OF DYNAMIC MEMORY USED IN VB2000 CODE ONLY:        7428
 NOTE THAT THIS IS IN ADDITION TO MEMORY USED BY GAMESS
 PRINTED NEAR END OF OUTPUT. ADD THE TWO AMOUNTS TO GIVE
 THE TOTAL MEMORY USED BY THE JOB

 STATISTICS OF CPU TIMES (SECONDS)
 CPU TIME FOR INITIALIZATION        0.000
 CPU TIME FOR MACROITERATION        0.030
 TOTAL CPU TIME                     0.030


 CREATED MULTIPLE XYZ FILE OF MOLECULAR COORDINATES

 Energy profile
            1           2           3           4           5           6
    -75.00340   -74.99796   -74.99109   -74.98306   -74.97413   -74.96457
            7           8           9          10          11          12
    -74.95463   -74.94455   -74.93452   -74.92472   -74.91529   -74.90637
           13          14          15          16          17
    -74.89810   -74.89065   -74.88419   -74.87890   -74.87484

      1|                                                  
      2|**                                                
      3|****                                              
      4|*******                                           
      5|***********                                       
      6|***************                                   
      7|******************                                
      8|**********************                            
      9|**************************                        
     10|******************************                    
     11|**********************************                
     12|*************************************             
     13|****************************************          
     14|*******************************************       
     15|**********************************************    
     16|************************************************  
     17|**************************************************


 STEP CPU TIME =     0.09 TOTAL CPU TIME =        2.4 (    0.0 MIN)
 TOTAL WALL CLOCK TIME=        2.5 SECONDS, CPU UTILIZATION IS  98.78%

 **************************************************************
 *                                                            *
 *                  ENDING GAMESS(US) VB2000                  *
 *                                                            *
 *  Properties for individual molecular orbitals are correct  *
 *   only for VB modified orbitals in a Hartree-Fock group.   *
 *                                                            *
 **************************************************************

     ----------------------------------
     PROPERTIES FOR THE VB WAVEFUNCTION
     ----------------------------------

          -----------------
          ENERGY COMPONENTS
          -----------------

         WAVEFUNCTION NORMALIZATION =       1.0000000000

                ONE ELECTRON ENERGY =    -122.2612854765
                TWO ELECTRON ENERGY =      38.6550193901
           NUCLEAR REPULSION ENERGY =       8.7314246085
                                      ------------------
                       TOTAL ENERGY =     -74.8748414778

 ELECTRON-ELECTRON POTENTIAL ENERGY =      38.6550193901
  NUCLEUS-ELECTRON POTENTIAL ENERGY =    -196.9541867679
   NUCLEUS-NUCLEUS POTENTIAL ENERGY =       8.7314246085
                                      ------------------
             TOTAL POTENTIAL ENERGY =    -149.5677427693
               TOTAL KINETIC ENERGY =      74.6929012915
                 VIRIAL RATIO (V/T) =       2.0024358431

          ---------------------------------------
          MULLIKEN AND LOWDIN POPULATION ANALYSES
          ---------------------------------------

     ATOMIC MULLIKEN POPULATION IN EACH MOLECULAR ORBITAL

                      1          2          3          4          5

                  2.000000   2.000000   2.000000   2.000000   2.000000

    1             2.001216   2.000000   2.000000   1.489553   2.000000
    2            -0.000608  -0.000000  -0.000000   0.042430   0.000000
    3            -0.000608  -0.000000  -0.000000   0.042430   0.000000

               ----- POPULATIONS IN EACH AO -----
                             MULLIKEN      LOWDIN
              1  O  1  S      1.99639     1.99221
              2  O  1  S      1.57696     1.44158
              3  O  1  X      2.00000     2.00000
              4  O  1  Y      0.95289     0.97935
              5  O  1  Z      2.00000     2.00000
              6  H  2  S      0.73688     0.79343
              7  H  3  S      0.73688     0.79343

          ----- MULLIKEN ATOMIC OVERLAP POPULATIONS -----
          (OFF-DIAGONAL ELEMENTS NEED TO BE MULTIPLIED BY 2)

             1           2           3

    1    7.9276898
    2    0.2992744   0.4736924
    3    0.2992744  -0.0360862   0.4736924

          TOTAL MULLIKEN AND LOWDIN ATOMIC POPULATIONS
       ATOM         MULL.POP.    CHARGE          LOW.POP.     CHARGE
    1 OXYGEN        8.526239   -0.526239         8.413142   -0.413142
    2 HYDROGEN      0.736881    0.263119         0.793429    0.206571
    3 HYDROGEN      0.736881    0.263119         0.793429    0.206571

          -------------------------------
          BOND ORDER AND VALENCE ANALYSIS     BOND ORDER THRESHOLD=0.050
          -------------------------------

                   BOND                       BOND                       BOND
  ATOM PAIR DIST  ORDER      ATOM PAIR DIST  ORDER      ATOM PAIR DIST  ORDER
    1   2  1.000  0.802        1   3  1.000  0.802        2   3  2.000  0.087

                       TOTAL       BONDED        FREE
      ATOM            VALENCE     VALENCE     VALENCE
    1 OXYGEN            1.669       1.604       0.065
    2 HYDROGEN          0.931       0.889       0.042
    3 HYDROGEN          0.931       0.889       0.042

          ---------------------
          ELECTROSTATIC MOMENTS
          ---------------------

 POINT   1           X           Y           Z (BOHR)    CHARGE
                 0.000000    0.000000    0.000000        0.00 (A.U.)
         DX          DY          DZ         /D/  (DEBYE)
    -0.000000   -0.000000   -0.000000    0.000000
 ...... END OF PROPERTY EVALUATION ......
 STEP CPU TIME =     0.01 TOTAL CPU TIME =        2.4 (    0.0 MIN)
 TOTAL WALL CLOCK TIME=        2.5 SECONDS, CPU UTILIZATION IS  99.19%
               580000  WORDS OF DYNAMIC MEMORY USED
 EXECUTION OF GAMESS TERMINATED NORMALLY Mon Oct 14 07:28:34 2013
 DDI: 263624 bytes (0.3 MB / 0 MWords) used by master data server.

 ----------------------------------------
 CPU timing information for all processes
 ========================================
 0: 2.352 + 0.96 = 2.448
 ----------------------------------------
 ddikick.x: exited gracefully.
unset echo
----- accounting info -----
Files used on the master node titch-64 were:
-rw-r--r-- 1 brian brian    3370 Oct 14 07:28 /scr/brian/exam-vb10.F05
-rw-rw-r-- 1 brian brian  180016 Oct 14 07:28 /scr/brian/exam-vb10.F08
-rw-rw-r-- 1 brian brian 1505120 Oct 14 07:28 /scr/brian/exam-vb10.F10
-rw-rw-r-- 1 brian brian      88 Oct 14 07:28 /scr/brian/exam-vb10.TEMP02
-rw-rw-r-- 1 brian brian      88 Oct 14 07:28 /scr/brian/exam-vb10.TEMP03
-rw-rw-r-- 1 brian brian     448 Oct 14 07:28 /scr/brian/exam-vb10.TEMP04
-rw-rw-r-- 1 brian brian    2204 Oct 14 07:28 /scr/brian/exam-vb10.V80
-rw-rw-r-- 1 brian brian       0 Oct 14 07:28 /scr/brian/exam-vb10.V82
-rw-rw-r-- 1 brian brian       0 Oct 14 07:28 /scr/brian/exam-vb10.V83
-rw-rw-r-- 1 brian brian     724 Oct 14 07:28 /scr/brian/exam-vb10.V84
-rw-rw-r-- 1 brian brian    6520 Oct 14 07:28 /scr/brian/exam-vb10.V85
-rw-rw-r-- 1 brian brian  196592 Oct 14 07:28 /scr/brian/exam-vb10.V86
-rw-rw-r-- 1 brian brian  196592 Oct 14 07:28 /scr/brian/exam-vb10.V87
-rw-rw-r-- 1 brian brian     736 Oct 14 07:28 /scr/brian/exam-vb10.V88
-rw-rw-r-- 1 brian brian       0 Oct 14 07:28 /scr/brian/exam-vb10.V89
-rw-rw-r-- 1 brian brian    2771 Oct 14 07:28 /scr/brian/exam-vb10.xyz
ls: No match.
ls: No match.
ls: No match.
Mon Oct 14 07:28:37 EST 2013
0.060u 0.028s 0:05.60 1.4%	0+0k 8+24io 0pf+0w
