----- GAMESS execution script 'rungms' -----
This job is running on host titch-64
under operating system Linux at Mon Oct 14 07:29:25 EST 2013
Available scratch disk space (Kbyte units) at beginning of the job is
Filesystem     1K-blocks      Used Available Use% Mounted on
/dev/sda1      945022356 138266132 758751872  16% /
GAMESS temporary binary files will be written to /scr/brian
GAMESS supplementary output files will be written to /home/brian/scr
Copying input file exam-vb15.inp to your run's scratch directory...
cp tests/exam-vb15.inp /scr/brian/exam-vb15.F05
unset echo
/home/brian/qchem/gamess/ddikick.x /home/brian/qchem/gamess/gamess.01.x exam-vb15 -ddi 1 1 titch-64 -scr /scr/brian

 Distributed Data Interface kickoff program.
 Initiating 1 compute processes on 1 nodes to run the following command:
 /home/brian/qchem/gamess/gamess.01.x exam-vb15 

          ******************************************************
          *         GAMESS VERSION =  1 MAY 2013 (R1)          *
          *             FROM IOWA STATE UNIVERSITY             *
          * M.W.SCHMIDT, K.K.BALDRIDGE, J.A.BOATZ, S.T.ELBERT, *
          *   M.S.GORDON, J.H.JENSEN, S.KOSEKI, N.MATSUNAGA,   *
          *          K.A.NGUYEN, S.J.SU, T.L.WINDUS,           *
          *       TOGETHER WITH M.DUPUIS, J.A.MONTGOMERY       *
          *         J.COMPUT.CHEM.  14, 1347-1363(1993)        *
          **************** 64 BIT LINUX VERSION ****************

  SINCE 1993, STUDENTS AND POSTDOCS WORKING AT IOWA STATE UNIVERSITY
  AND ALSO IN THEIR VARIOUS JOBS AFTER LEAVING ISU HAVE MADE IMPORTANT
  CONTRIBUTIONS TO THE CODE:
     IVANA ADAMOVIC, CHRISTINE AIKENS, YURI ALEXEEV, POOJA ARORA,
     ANDREY ASADCHEV, ROB BELL, PRADIPTA BANDYOPADHYAY, JONATHAN BENTZ,
     BRETT BODE, GALINA CHABAN, WEI CHEN, CHEOL HO CHOI, PAUL DAY,
     ALBERT DEFUSCO, TIM DUDLEY, DMITRI FEDOROV, GRAHAM FLETCHER,
     MARK FREITAG, KURT GLAESEMANN, DAN KEMP, GRANT MERRILL,
     NORIYUKI MINEZAWA, JONATHAN MULLIN, TAKESHI NAGATA,
     SEAN NEDD, HEATHER NETZLOFF, BOSILJKA NJEGIC, RYAN OLSON, MIKE PAK,
     JIM SHOEMAKER, LYUDMILA SLIPCHENKO, SAROM SOK, JIE SONG,
     TETSUYA TAKETSUGU, SIMON WEBB, SOOHAENG YOO, FEDERICO ZAHARIEV

  ADDITIONAL CODE HAS BEEN PROVIDED BY COLLABORATORS IN OTHER GROUPS:
     IOWA STATE UNIVERSITY:
          JOE IVANIC, LAIMUTIS BYTAUTAS, KLAUS RUEDENBERG
     UNIVERSITY OF TOKYO: KIMIHIKO HIRAO, TAKAHITO NAKAJIMA,
          TAKAO TSUNEDA, MUNEAKI KAMIYA, SUSUMU YANAGISAWA,
          KIYOSHI YAGI, MAHITO CHIBA, SEIKEN TOKURA, NAOAKI KAWAKAMI
     UNIVERSITY OF AARHUS: FRANK JENSEN
     UNIVERSITY OF IOWA: VISVALDAS KAIRYS, HUI LI
     NATIONAL INST. OF STANDARDS AND TECHNOLOGY: WALT STEVENS, DAVID GARMER
     UNIVERSITY OF PISA: BENEDETTA MENNUCCI, JACOPO TOMASI
     UNIVERSITY OF MEMPHIS: HENRY KURTZ, PRAKASHAN KORAMBATH
     UNIVERSITY OF ALBERTA: TOBY ZENG, MARIUSZ KLOBUKOWSKI
     UNIVERSITY OF NEW ENGLAND: MARK SPACKMAN
     MIE UNIVERSITY: HIROAKI UMEDA
     MICHIGAN STATE UNIVERSITY:
          KAROL KOWALSKI, MARTA WLOCH, JEFFREY GOUR, JESSE LUTZ,
          WEI LI, PIOTR PIECUCH
     UNIVERSITY OF SILESIA: MONIKA MUSIAL, STANISLAW KUCHARSKI
     FACULTES UNIVERSITAIRES NOTRE-DAME DE LA PAIX:
          OLIVIER QUINET, BENOIT CHAMPAGNE
     UNIVERSITY OF CALIFORNIA - SANTA BARBARA: BERNARD KIRTMAN
     INSTITUTE FOR MOLECULAR SCIENCE:
          KAZUYA ISHIMURA, MICHIO KATOUDA, AND SHIGERU NAGASE
     UNIVERSITY OF NOTRE DAME: DAN CHIPMAN
     KYUSHU UNIVERSITY:
          HARUYUKI NAKANO,
          FENG LONG GU, JACEK KORCHOWIEC, MARCIN MAKOWSKI, AND YURIKO AOKI,
          HIROTOSHI MORI AND EISAKU MIYOSHI
     PENNSYLVANIA STATE UNIVERSITY:
          TZVETELIN IORDANOV, CHET SWALINA, JONATHAN SKONE,
          SHARON HAMMES-SCHIFFER
     WASEDA UNIVERSITY:
          MASATO KOBAYASHI, TOMOKO AKAMA, TSUGUKI TOUMA,
          TAKESHI YOSHIKAWA, YASUHIRO IKABATA, HIROMI NAKAI
     NANJING UNIVERSITY: SHUHUA LI
     UNIVERSITY OF NEBRASKA:
          PEIFENG SU, DEJUN SI, NANDUN THELLAMUREGE, YALI WANG, HUI LI
     UNIVERSITY OF ZURICH:
          ROBERTO PEVERATI, KIM BALDRIDGE
     N. COPERNICUS UNIVERSITY AND JACKSON STATE UNIVERSITY:
          MARIA BARYSZ

 EXECUTION OF GAMESS BEGUN Mon Oct 14 07:29:25 2013

            ECHO OF THE FIRST FEW INPUT CARDS -
 INPUT CARD>! GAMESS/VB2000 Test 15.                                                        
 INPUT CARD>! A test of CH2S with the cc-VDZ basis that has a larger number of              
 INPUT CARD>! primitive Gaussians per contracted function than previous studies.            
 INPUT CARD>! It also demonstrates that even if spherical harmonic d functions,             
 INPUT CARD>! not cartesian d functions, are used in the Gamess run, that the               
 INPUT CARD>! run still works, but cartesian Gaussians are still used in the VB             
 INPUT CARD>! run. Note that spherical harmonics with ISPHER=1 in the $CONTRL               
 INPUT CARD>! block now have to be used for this basis. Note also that this is              
 INPUT CARD>! not using the same basis set as an earlier test 15, which has                 
 INPUT CARD>! only 1, not 2, sets of d orbitals on S.                                       
 INPUT CARD>!                                                                               
 INPUT CARD>! Results are:-                                                                 
 INPUT CARD>!                                                                               
 INPUT CARD>! Hartree-Fock Energy from Gamess run =    -436.5273999626                      
 INPUT CARD>!                                                                               
 INPUT CARD>! ENERGY AND DIFF OF MACROITER    9 =   -436.55972538      0.00000000           
 INPUT CARD>!                                                                               
 INPUT CARD>! The HF and VB dipole moments are 2.2816 and 1.7685 respectively.              
 INPUT CARD>!                                                                               
 INPUT CARD> $CONTRL SCFTYP=RHF COORD=UNIQUE VBTYP=VB2000 ISPHER=1 $END                     
 INPUT CARD> $SYSTEM TIMLIM=20 MEMORY=2000000 $END                                          
 INPUT CARD> $GUESS  GUESS=HCORE $END                                                       
 INPUT CARD> $BASIS GBASIS=CCD $END                                                         
 INPUT CARD> $DATA                                                                          
 INPUT CARD>CH2S cc-pVDZ VB2000 Test                                                        
 INPUT CARD>C1                                                                              
 INPUT CARD>S  16.0  -0.1205    0.0      0.0                                                
 INPUT CARD>H  1.0    2.1195  0.0  0.923                                                    
 INPUT CARD>H  1.0    2.1195   0.0 -0.923                                                   
 INPUT CARD>C  6.0    1.5595    0.0      0.0                                                
 INPUT CARD> $END                                                                           
 INPUT CARD> $VB2000                                                                        
 INPUT CARD>#! VB(2)/cc-pVDZ printall                                                       
 INPUT CARD>                                                                                
 INPUT CARD>TEST CH2S                                                                       
 INPUT CARD>                                                                                
 INPUT CARD>0 1                                                                             
 INPUT CARD>16  -0.1205    0.0    0.0                                                       
 INPUT CARD>1    2.1195    0.0    0.923                                                     
 INPUT CARD>1    2.1195    0.0   -0.923                                                     
 INPUT CARD>6    1.5595    0.0      0.0                                                     
 INPUT CARD>                                                                                
 INPUT CARD> $ECONV                                                                         
 INPUT CARD> 8                                                                              
 INPUT CARD>                                                                                
 INPUT CARD> $MACROITERATIONS                                                               
 INPUT CARD> 30                                                                             
 INPUT CARD>                                                                                
 INPUT CARD>                                                                                
 INPUT CARD> $END                                                                           
    2000000 WORDS OF MEMORY AVAILABLE

     BASIS OPTIONS
     -------------
     GBASIS=CCD          IGAUSS=       0      POLAR=NONE    
     NDFUNC=       0     NFFUNC=       0     DIFFSP=       F
     NPFUNC=       0      DIFFS=       F     BASNAM=        


     RUN TITLE
     ---------
 CH2S cc-pVDZ VB2000 Test                                                        

 THE POINT GROUP OF THE MOLECULE IS C1      
 THE ORDER OF THE PRINCIPAL AXIS IS     0

 ATOM      ATOMIC                      COORDINATES (BOHR)
           CHARGE         X                   Y                   Z
 S          16.0    -0.2277119815        0.0000000000        0.0000000000
 H           1.0     4.0052742310        0.0000000000        1.7442170867
 H           1.0     4.0052742310        0.0000000000       -1.7442170867
 C           6.0     2.9470276779        0.0000000000        0.0000000000

          INTERNUCLEAR DISTANCES (ANGS.)
          ------------------------------

                1 S          2 H          3 H          4 C     

   1 S       0.0000000    2.4227111 *  2.4227111 *  1.6800000 *
   2 H       2.4227111 *  0.0000000    1.8460000 *  1.0795967 *
   3 H       2.4227111 *  1.8460000 *  0.0000000    1.0795967 *
   4 C       1.6800000 *  1.0795967 *  1.0795967 *  0.0000000  

  * ... LESS THAN  3.000


     ATOMIC BASIS SET
     ----------------
 THE CONTRACTED PRIMITIVE FUNCTIONS HAVE BEEN UNNORMALIZED
 THE CONTRACTED BASIS FUNCTIONS ARE NOW NORMALIZED TO UNITY

  SHELL TYPE  PRIMITIVE        EXPONENT          CONTRACTION COEFFICIENT(S)

 S         

      1   S       1        110800.0000000    0.000247631104
      1   S       2         16610.0000000    0.001920229785
      1   S       3          3781.0000000    0.009961763253
      1   S       4          1071.0000000    0.040296865935
      1   S       5           349.8000000    0.128601976468
      1   S       6           126.3000000    0.303475224866
      1   S       7            49.2600000    0.421425368939
      1   S       8            20.1600000    0.230777368755
      1   S       9             5.7200000    0.017896818396
      1   S      10             2.1820000   -0.002975113187
      1   S      11             0.4327000    0.000849508633

      2   S      12        110800.0000000   -0.000068497729
      2   S      13         16610.0000000   -0.000526097502
      2   S      14          3781.0000000   -0.002788317458
      2   S      15          1071.0000000   -0.011231294983
      2   S      16           349.8000000   -0.038766716261
      2   S      17           126.3000000   -0.099203906674
      2   S      18            49.2600000   -0.199140607714
      2   S      19            20.1600000   -0.122989813596
      2   S      20             5.7200000    0.511653975344
      2   S      21             2.1820000    0.605298116328
      2   S      22             0.4327000    0.039556239878

      3   S      23        110800.0000000    0.000036677084
      3   S      24         16610.0000000    0.000282770430
      3   S      25          3781.0000000    0.001491393257
      3   S      26          1071.0000000    0.006060874455
      3   S      27           349.8000000    0.020812550676
      3   S      28           126.3000000    0.054604688378
      3   S      29            49.2600000    0.110513949520
      3   S      30            20.1600000    0.076135021216
      3   S      31             5.7200000   -0.382241109253
      3   S      32             2.1820000   -0.723841672563
      3   S      33             0.4327000    1.165916999623

      4   S      34             0.1570000    1.000000000000

      5   P      35           399.7000000    0.004475383311
      5   P      36            94.1900000    0.034170596222
      5   P      37            29.7500000    0.144249139765
      5   P      38            10.7700000    0.353925889351
      5   P      39             4.1190000    0.459082262247
      5   P      40             1.6250000    0.206381769235
      5   P      41             0.4726000    0.010214039088

      6   P      42           399.7000000   -0.002016423974
      6   P      43            94.1900000   -0.015015317230
      6   P      44            29.7500000   -0.067800870671
      6   P      45            10.7700000   -0.162114756607
      6   P      46             4.1190000   -0.256702006572
      6   P      47             1.6250000    0.052366557152
      6   P      48             0.4726000    0.974072705222

      7   P      49             0.1407000    1.000000000000

      8   D      50             0.4810000    1.000000000000

      9   D      51             2.9940000    1.000000000000

 H         

     10   S      52            13.0100000    0.033498726390
     10   S      53             1.9620000    0.234800801174
     10   S      54             0.4446000    0.813682957883

     11   S      55             0.1220000    1.000000000000

     12   P      56             0.7270000    1.000000000000

 H         

     13   S      57            13.0100000    0.033498726390
     13   S      58             1.9620000    0.234800801174
     13   S      59             0.4446000    0.813682957883

     14   S      60             0.1220000    1.000000000000

     15   P      61             0.7270000    1.000000000000

 C         

     16   S      62          6665.0000000    0.000691583963
     16   S      63          1000.0000000    0.005325796153
     16   S      64           228.0000000    0.027060721042
     16   S      65            64.7100000    0.101656846141
     16   S      66            21.0600000    0.274574823617
     16   S      67             7.4950000    0.448294318924
     16   S      68             2.7970000    0.284902610715
     16   S      69             0.5215000    0.015194859206

     17   S      70          6665.0000000   -0.000293269653
     17   S      71          1000.0000000   -0.002318035474
     17   S      72           228.0000000   -0.011499786039
     17   S      73            64.7100000   -0.046826727010
     17   S      74            21.0600000   -0.128466168750
     17   S      75             7.4950000   -0.301266272463
     17   S      76             2.7970000   -0.255630702330
     17   S      77             0.5215000    1.093793361012

     18   S      78             0.1596000    1.000000000000

     19   P      79             9.4390000    0.056979251590
     19   P      80             2.0020000    0.313207211501
     19   P      81             0.5456000    0.760376741738

     20   P      82             0.1517000    1.000000000000

     21   D      83             0.5500000    1.000000000000

 TOTAL NUMBER OF BASIS SET SHELLS             =   21
 NUMBER OF CARTESIAN GAUSSIAN BASIS FUNCTIONS =   50
 NOTE: THIS RUN WILL RESTRICT THE MO VARIATION SPACE TO SPHERICAL HARMONICS.
 THE NUMBER OF ORBITALS KEPT IN THE VARIATIONAL SPACE WILL BE PRINTED LATER.
 NUMBER OF ELECTRONS                          =   24
 CHARGE OF MOLECULE                           =    0
 SPIN MULTIPLICITY                            =    1
 NUMBER OF OCCUPIED ORBITALS (ALPHA)          =   12
 NUMBER OF OCCUPIED ORBITALS (BETA )          =   12
 TOTAL NUMBER OF ATOMS                        =    4
 THE NUCLEAR REPULSION ENERGY IS       43.3968601281

     $CONTRL OPTIONS
     ---------------
 SCFTYP=RHF          RUNTYP=ENERGY       EXETYP=RUN     
 MPLEVL=       0     CITYP =NONE         CCTYP =NONE         VBTYP =VB2000  
 DFTTYP=NONE         TDDFT =NONE    
 MULT  =       1     ICHARG=       0     NZVAR =       0     COORD =UNIQUE  
 PP    =NONE         RELWFN=NONE         LOCAL =NONE         NUMGRD=       F
 ISPHER=       1     NOSYM =       0     MAXIT =      30     UNITS =ANGS    
 PLTORB=       F     MOLPLT=       F     AIMPAC=       F     FRIEND=        
 NPRINT=       7     IREST =       0     GEOM  =INPUT   
 NORMF =       0     NORMP =       0     ITOL  =      20     ICUT  =       9
 INTTYP=BEST         GRDTYP=BEST         QMTTOL= 1.0E-06

     $SYSTEM OPTIONS
     ---------------
  REPLICATED MEMORY=     2000000 WORDS (ON EVERY NODE).
 DISTRIBUTED MEMDDI=           0 MILLION WORDS IN AGGREGATE,
 MEMDDI DISTRIBUTED OVER   1 PROCESSORS IS           0 WORDS/PROCESSOR.
 TOTAL MEMORY REQUESTED ON EACH PROCESSOR=     2000000 WORDS.
 TIMLIM=          20.00 MINUTES, OR       0.0 DAYS.
 PARALL= F  BALTYP=  DLB     KDIAG=    0  COREFL= F
 MXSEQ2=     300 MXSEQ3=     150

          ----------------
          PROPERTIES INPUT
          ----------------

     MOMENTS            FIELD           POTENTIAL          DENSITY
 IEMOM =       1   IEFLD =       0   IEPOT =       0   IEDEN =       0
 WHERE =COMASS     WHERE =NUCLEI     WHERE =NUCLEI     WHERE =NUCLEI  
 OUTPUT=BOTH       OUTPUT=BOTH       OUTPUT=BOTH       OUTPUT=BOTH    
 IEMINT=       0   IEFINT=       0                     IEDINT=       0
                                                       MORB  =       0
          EXTRAPOLATION IN EFFECT
          SOSCF IN EFFECT
 ORBITAL PRINTING OPTION: NPREO=     1    50     2     1

     -------------------------------
     INTEGRAL TRANSFORMATION OPTIONS
     -------------------------------
     NWORD  =            0
     CUTOFF = 1.0E-09     MPTRAN =       0
     DIRTRF =       F     AOINTS =DUP     

          ----------------------
          INTEGRAL INPUT OPTIONS
          ----------------------
 NOPK  =       1 NORDER=       0 SCHWRZ=       F

     ------------------------------------------
     THE POINT GROUP IS C1 , NAXIS= 0, ORDER= 1
     ------------------------------------------

 -- VARIATIONAL SPACE WILL BE RESTRICTED TO PURE SPHERICAL HARMONICS ONLY --
 AFTER EXCLUDING CONTAMINANT COMBINATIONS FROM THE CARTESIAN GAUSSIAN BASIS
 SET, THE NUMBER OF SPHERICAL HARMONICS KEPT IN THE VARIATION SPACE IS   47

     DIMENSIONS OF THE SYMMETRY SUBSPACES ARE
 A   =   47

 ..... DONE SETTING UP THE RUN .....
 STEP CPU TIME =     0.01 TOTAL CPU TIME =        0.0 (    0.0 MIN)
 TOTAL WALL CLOCK TIME=        0.0 SECONDS, CPU UTILIZATION IS  50.00%

          ********************
          1 ELECTRON INTEGRALS
          ********************
 ...... END OF ONE-ELECTRON INTEGRALS ......
 STEP CPU TIME =     0.01 TOTAL CPU TIME =        0.0 (    0.0 MIN)
 TOTAL WALL CLOCK TIME=        0.0 SECONDS, CPU UTILIZATION IS 100.00%

          -------------
          GUESS OPTIONS
          -------------
          GUESS =HCORE             NORB  =       0          NORDER=       0
          MIX   =       F          PRTMO =       F          PUNMO =       F
          TOLZ  = 1.0E-08          TOLE  = 1.0E-05
          SYMDEN=       F          PURIFY=       F

 INITIAL GUESS ORBITALS GENERATED BY HCORE    ROUTINE.

 STATISTICS FOR GENERATION OF SYMMETRY ORBITAL -Q- MATRIX
 NUMBER OF CARTESIAN ATOMIC ORBITALS=         50
 NUMBER OF SPHERICAL CONTAMINANTS DROPPED=     3
 NUMBER OF LINEARLY DEPENDENT MOS DROPPED=     0
 TOTAL NUMBER OF MOS IN VARIATION SPACE=      47

 SYMMETRIES FOR INITIAL GUESS ORBITALS FOLLOW.   BOTH SET(S).
    12 ORBITALS ARE OCCUPIED (    6 CORE ORBITALS).
     7=A        8=A        9=A       10=A       11=A       12=A       13=A   
    14=A       15=A       16=A       17=A       18=A       19=A       20=A   
    21=A       22=A   
 ...... END OF INITIAL ORBITAL SELECTION ......
 STEP CPU TIME =     0.00 TOTAL CPU TIME =        0.0 (    0.0 MIN)
 TOTAL WALL CLOCK TIME=        0.0 SECONDS, CPU UTILIZATION IS  66.67%

                    ----------------------
                    AO INTEGRAL TECHNOLOGY
                    ----------------------
     S,P,L SHELL ROTATED AXIS INTEGRALS, REPROGRAMMED BY
        KAZUYA ISHIMURA (IMS) AND JOSE SIERRA (SYNSTAR).
     S,P,D,L SHELL ROTATED AXIS INTEGRALS PROGRAMMED BY
        KAZUYA ISHIMURA (INSTITUTE FOR MOLECULAR SCIENCE).
     S,P,D,F,G SHELL TO TOTAL QUARTET ANGULAR MOMENTUM SUM 5,
        ERIC PROGRAM BY GRAHAM FLETCHER (ELORET AND NASA ADVANCED
        SUPERCOMPUTING DIVISION, AMES RESEARCH CENTER).
     S,P,D,F,G,L SHELL GENERAL RYS QUADRATURE PROGRAMMED BY
        MICHEL DUPUIS (PACIFIC NORTHWEST NATIONAL LABORATORY).

          --------------------
          2 ELECTRON INTEGRALS
          --------------------

 THE -PK- OPTION IS OFF, THE INTEGRALS ARE NOT IN SUPERMATRIX FORM.
 STORING   15000 INTEGRALS/RECORD ON DISK, USING 12 BYTES/INTEGRAL.
 TWO ELECTRON INTEGRAL EVALUATION REQUIRES   90627 WORDS OF MEMORY.
 II,JST,KST,LST =  1  1  1  1 NREC =         1 INTLOC =    1
 II,JST,KST,LST =  2  1  1  1 NREC =         1 INTLOC =    2
 II,JST,KST,LST =  3  1  1  1 NREC =         1 INTLOC =    7
 II,JST,KST,LST =  4  1  1  1 NREC =         1 INTLOC =   22
 II,JST,KST,LST =  5  1  1  1 NREC =         1 INTLOC =   56
 II,JST,KST,LST =  6  1  1  1 NREC =         1 INTLOC =  125
 II,JST,KST,LST =  7  1  1  1 NREC =         1 INTLOC =  329
 II,JST,KST,LST =  8  1  1  1 NREC =         1 INTLOC =  776
 II,JST,KST,LST =  9  1  1  1 NREC =         1 INTLOC = 2864
 II,JST,KST,LST = 10  1  1  1 NREC =         1 INTLOC = 7967
 II,JST,KST,LST = 11  1  1  1 NREC =         1 INTLOC =12846
 II,JST,KST,LST = 12  1  1  1 NREC =         2 INTLOC = 3375
 II,JST,KST,LST = 13  1  1  1 NREC =         3 INTLOC = 7185
 II,JST,KST,LST = 14  1  1  1 NREC =         4 INTLOC =  374
 II,JST,KST,LST = 15  1  1  1 NREC =         4 INTLOC = 9553
 II,JST,KST,LST = 16  1  1  1 NREC =         6 INTLOC = 8922
 II,JST,KST,LST = 17  1  1  1 NREC =         7 INTLOC = 4742
 II,JST,KST,LST = 18  1  1  1 NREC =         8 INTLOC = 1789
 II,JST,KST,LST = 19  1  1  1 NREC =         8 INTLOC =14925
 II,JST,KST,LST = 20  1  1  1 NREC =        11 INTLOC =10078
 II,JST,KST,LST = 21  1  1  1 NREC =        14 INTLOC =13884
 TOTAL NUMBER OF NONZERO TWO-ELECTRON INTEGRALS =              336495
         23 INTEGRAL RECORDS WERE STORED ON DISK FILE  8.
  ...... END OF TWO-ELECTRON INTEGRALS .....
 STEP CPU TIME =     0.19 TOTAL CPU TIME =        0.2 (    0.0 MIN)
 TOTAL WALL CLOCK TIME=        0.2 SECONDS, CPU UTILIZATION IS  95.45%

          --------------------------
                 RHF SCF CALCULATION
          --------------------------

     NUCLEAR ENERGY =        43.3968601281
     MAXIT =   30     NPUNCH=    2
     EXTRAP=T  DAMP=F  SHIFT=F  RSTRCT=F  DIIS=F  DEM=F  SOSCF=T
     DENSITY MATRIX CONV=  1.00E-05
     SOSCF WILL OPTIMIZE     420 ORBITAL ROTATIONS, SOGTOL=   0.250
     MEMORY REQUIRED FOR RHF ITERS=     49880 WORDS.

 ITER EX DEM     TOTAL ENERGY        E CHANGE  DENSITY CHANGE     ORB. GRAD
   1  0  0     -358.2407899873  -358.2407899873  13.268694255   0.000000000
   2  1  0     -283.2506653345    74.9901246528  13.268061705   1.084932370
   3  2  0     -363.1346460231   -79.8839806886   6.124476730   3.078204881
   4  3  0     -280.3634856731    82.7711603500   6.124480047   1.411498453
   5  0  0     -363.4078042708   -83.0443185977   1.938301715   3.081583262
   6  1  0     -424.3380011601   -60.9301968892   2.061370402   0.893972924
   7  2  0     -423.1970319990     1.1409691611   2.072781364   0.961204914
   8  3  0     -419.7127657483     3.4842662507   2.645470119   0.757274076
   9  4  0     -421.8203002043    -2.1075344560   2.645521053   1.084222495
  10  0  0     -419.2892489942     2.5310512101   1.710697798   0.856824483
          ---------------START SECOND ORDER SCF---------------
  11  1  0     -436.3496540052   -17.0604050110   0.699726797   0.103992866
  12  2  0     -436.3975090836    -0.0478550783   0.277611201   0.090891303
  13  3  0     -436.5091593458    -0.1116502622   0.228972328   0.037116190
  14  4  0     -436.5074759076     0.0016834382   0.133467835   0.035032832
  15  5  0     -436.5272077311    -0.0197318235   0.014583902   0.004537501
  16  6  0     -436.5273715196    -0.0001637884   0.005347953   0.001681643
  17  7  0     -436.5273992322    -0.0000277126   0.001904616   0.000329596
  18  8  0     -436.5273998726    -0.0000006404   0.000287038   0.000102287
  19  9  0     -436.5273999555    -0.0000000829   0.000096897   0.000019094
  20 10  0     -436.5273999617    -0.0000000061   0.000056649   0.000011672
  21 11  0     -436.5273999626    -0.0000000009   0.000008705   0.000001506
  22 12  0     -436.5273999626    -0.0000000000   0.000003797   0.000000851

          -----------------
          DENSITY CONVERGED
          -----------------
     TIME TO FORM FOCK OPERATORS=       0.1 SECONDS (       0.0 SEC/ITER)
     TIME TO SOLVE SCF EQUATIONS=       0.0 SECONDS (       0.0 SEC/ITER)

 FINAL RHF ENERGY IS     -436.5273999626 AFTER  22 ITERATIONS

          ------------
          EIGENVECTORS
          ------------

                      1          2          3          4          5
                  -91.9536   -11.3326    -8.9538    -6.6351    -6.6344
                     A          A          A          A          A   
    1  S  1  S    1.000025  -0.000024   0.000190   0.000024  -0.000000
    2  S  1  S    0.000079  -0.000114   1.004454  -0.003232  -0.000000
    3  S  1  S    0.000090  -0.000214   0.002134   0.001405  -0.000000
    4  S  1  S   -0.000619   0.001328  -0.014148  -0.000295  -0.000000
    5  S  1  X    0.000054  -0.000002   0.003973   1.000053  -0.000000
    6  S  1  Y    0.000000  -0.000000  -0.000000  -0.000000   1.000101
    7  S  1  Z    0.000000  -0.000000  -0.000000  -0.000000  -0.000000
    8  S  1  X    0.000014  -0.000011   0.001346   0.000327  -0.000000
    9  S  1  Y    0.000000  -0.000000  -0.000000  -0.000000   0.000265
   10  S  1  Z    0.000000  -0.000000  -0.000000  -0.000000  -0.000000
   11  S  1  X   -0.000156   0.000684  -0.003257  -0.000744  -0.000000
   12  S  1  Y    0.000000  -0.000000  -0.000000  -0.000000  -0.000851
   13  S  1  Z    0.000000  -0.000000  -0.000000  -0.000000  -0.000000
   14  S  1 XX   -0.000013  -0.000288  -0.000039   0.000252  -0.000000
   15  S  1 YY    0.000013   0.000245  -0.000043  -0.000059  -0.000000
   16  S  1 ZZ    0.000000   0.000043   0.000082  -0.000192  -0.000000
   17  S  1 XY    0.000000  -0.000000  -0.000000  -0.000000  -0.000045
   18  S  1 XZ    0.000000  -0.000000  -0.000000  -0.000000  -0.000000
   19  S  1 YZ    0.000000  -0.000000  -0.000000  -0.000000  -0.000000
   20  S  1 XX    0.000005   0.000042   0.000394   0.000669  -0.000000
   21  S  1 YY   -0.000001  -0.000032   0.000514  -0.000398  -0.000000
   22  S  1 ZZ   -0.000004  -0.000009  -0.000908  -0.000271  -0.000000
   23  S  1 XY    0.000000  -0.000000  -0.000000  -0.000000   0.000634
   24  S  1 XZ    0.000000  -0.000000  -0.000000  -0.000000  -0.000000
   25  S  1 YZ    0.000000  -0.000000  -0.000000  -0.000000  -0.000000
   26  H  2  S   -0.000020  -0.000326  -0.000215   0.000131  -0.000000
   27  H  2  S    0.000049   0.001274   0.001077   0.000106  -0.000000
   28  H  2  X    0.000017   0.000231   0.000107  -0.000156  -0.000000
   29  H  2  Y    0.000000  -0.000000  -0.000000  -0.000000  -0.000004
   30  H  2  Z   -0.000011   0.000377  -0.000233  -0.000017  -0.000000
   31  H  3  S   -0.000020  -0.000326  -0.000215   0.000131  -0.000000
   32  H  3  S    0.000049   0.001274   0.001077   0.000106  -0.000000
   33  H  3  X    0.000017   0.000231   0.000107  -0.000156  -0.000000
   34  H  3  Y    0.000000  -0.000000  -0.000000  -0.000000  -0.000004
   35  H  3  Z    0.000011  -0.000377   0.000233   0.000017  -0.000000
   36  C  4  S   -0.000013   1.001732  -0.000468  -0.000233  -0.000000
   37  C  4  S   -0.000034   0.003239  -0.000595   0.000315  -0.000000
   38  C  4  S    0.000174  -0.006617   0.003079  -0.000067  -0.000000
   39  C  4  X    0.000030   0.000245   0.000421  -0.000528  -0.000000
   40  C  4  Y    0.000000  -0.000000  -0.000000  -0.000000   0.000023
   41  C  4  Z    0.000000  -0.000000  -0.000000  -0.000000  -0.000000
   42  C  4  X   -0.000153   0.000122  -0.002911  -0.000037  -0.000000
   43  C  4  Y    0.000000  -0.000000  -0.000000  -0.000000   0.000127
   44  C  4  Z    0.000000  -0.000000  -0.000000  -0.000000  -0.000000
   45  C  4 XX   -0.000048   0.000231  -0.000735   0.000324  -0.000000
   46  C  4 YY    0.000011  -0.000722   0.000360  -0.000005  -0.000000
   47  C  4 ZZ    0.000037   0.000492   0.000375  -0.000319  -0.000000
   48  C  4 XY    0.000000  -0.000000  -0.000000  -0.000000  -0.000032
   49  C  4 XZ    0.000000  -0.000000  -0.000000  -0.000000  -0.000000
   50  C  4 YZ    0.000000  -0.000000  -0.000000  -0.000000  -0.000000

                      6          7          8          9         10
                   -6.6315    -1.0433    -0.8177    -0.6441    -0.5288
                     A          A          A          A          A   
    1  S  1  S   -0.000000  -0.000549  -0.000176   0.000000   0.003664
    2  S  1  S   -0.000000  -0.009558  -0.001747   0.000000   0.020584
    3  S  1  S   -0.000000   0.317428   0.360772   0.000000  -0.166858
    4  S  1  S   -0.000000   0.270508   0.367343   0.000000  -0.387332
    5  S  1  X   -0.000000  -0.010386  -0.001525   0.000000  -0.009104
    6  S  1  Y   -0.000000  -0.000000  -0.000000   0.000000   0.000000
    7  S  1  Z    0.999821  -0.000000  -0.000000  -0.002446   0.000000
    8  S  1  X   -0.000000   0.110834  -0.031333   0.000000   0.405814
    9  S  1  Y   -0.000000  -0.000000  -0.000000   0.000000   0.000000
   10  S  1  Z   -0.001930  -0.000000  -0.000000   0.115365   0.000000
   11  S  1  X   -0.000000   0.036131  -0.029352   0.000000   0.237029
   12  S  1  Y   -0.000000  -0.000000  -0.000000   0.000000   0.000000
   13  S  1  Z    0.000078  -0.000000  -0.000000   0.067347   0.000000
   14  S  1 XX   -0.000000   0.040078  -0.003210   0.000000   0.066186
   15  S  1 YY   -0.000000  -0.019012  -0.000156   0.000000  -0.028536
   16  S  1 ZZ   -0.000000  -0.021066   0.003367   0.000000  -0.037650
   17  S  1 XY   -0.000000  -0.000000  -0.000000   0.000000   0.000000
   18  S  1 XZ   -0.000049  -0.000000  -0.000000   0.029358   0.000000
   19  S  1 YZ   -0.000000  -0.000000  -0.000000   0.000000   0.000000
   20  S  1 XX   -0.000000   0.007391   0.000656   0.000000   0.013864
   21  S  1 YY   -0.000000  -0.003703  -0.000511   0.000000  -0.006421
   22  S  1 ZZ   -0.000000  -0.003688  -0.000145   0.000000  -0.007443
   23  S  1 XY   -0.000000  -0.000000  -0.000000   0.000000   0.000000
   24  S  1 XZ    0.000873  -0.000000  -0.000000   0.004738   0.000000
   25  S  1 YZ   -0.000000  -0.000000  -0.000000   0.000000   0.000000
   26  H  2  S    0.000146   0.131988  -0.211886   0.310039  -0.122237
   27  H  2  S    0.000090   0.004861  -0.032155   0.087420  -0.060780
   28  H  2  X   -0.000003  -0.011860   0.006518  -0.014501  -0.003443
   29  H  2  Y   -0.000000  -0.000000  -0.000000   0.000000   0.000000
   30  H  2  Z   -0.000061  -0.016317   0.022268  -0.016620   0.011652
   31  H  3  S   -0.000146   0.131988  -0.211886  -0.310039  -0.122237
   32  H  3  S   -0.000090   0.004861  -0.032155  -0.087420  -0.060780
   33  H  3  X    0.000003  -0.011860   0.006518   0.014501  -0.003443
   34  H  3  Y   -0.000000  -0.000000  -0.000000   0.000000   0.000000
   35  H  3  Z   -0.000061   0.016317  -0.022268  -0.016620  -0.011652
   36  C  4  S   -0.000000  -0.014451   0.007315   0.000000   0.005187
   37  C  4  S   -0.000000   0.325276  -0.228520   0.000000   0.085821
   38  C  4  S   -0.000000   0.225244  -0.189130   0.000000   0.120886
   39  C  4  X   -0.000000  -0.083953  -0.234044   0.000000  -0.379683
   40  C  4  Y   -0.000000  -0.000000  -0.000000   0.000000   0.000000
   41  C  4  Z    0.000021  -0.000000  -0.000000   0.443217   0.000000
   42  C  4  X   -0.000000  -0.020421  -0.080963   0.000000  -0.179199
   43  C  4  Y   -0.000000  -0.000000  -0.000000   0.000000   0.000000
   44  C  4  Z   -0.000231  -0.000000  -0.000000   0.173169   0.000000
   45  C  4 XX   -0.000000   0.020137   0.012930   0.000000   0.018904
   46  C  4 YY   -0.000000  -0.008865   0.002943   0.000000  -0.003100
   47  C  4 ZZ   -0.000000  -0.011271  -0.015873   0.000000  -0.015805
   48  C  4 XY   -0.000000  -0.000000  -0.000000   0.000000   0.000000
   49  C  4 XZ   -0.000202  -0.000000  -0.000000   0.014456   0.000000
   50  C  4 YZ   -0.000000  -0.000000  -0.000000   0.000000   0.000000

                     11         12         13         14         15
                   -0.4003    -0.3494     0.0445     0.1811     0.2338
                     A          A          A          A          A   
    1  S  1  S    0.000000  -0.000000  -0.000000   0.006485  -0.000000
    2  S  1  S    0.000000  -0.000000  -0.000000   0.043804  -0.000000
    3  S  1  S    0.000000  -0.000000  -0.000000   0.013314  -0.000000
    4  S  1  S    0.000000  -0.000000  -0.000000  -0.230945  -0.000000
    5  S  1  X    0.000000  -0.000000  -0.000000   0.004857  -0.000000
    6  S  1  Y   -0.008748  -0.000000   0.010336  -0.000000  -0.000000
    7  S  1  Z    0.000000  -0.003230  -0.000000  -0.000000   0.007911
    8  S  1  X    0.000000  -0.000000  -0.000000  -0.113226  -0.000000
    9  S  1  Y    0.402258  -0.000000  -0.311330  -0.000000  -0.000000
   10  S  1  Z    0.000000   0.536504  -0.000000  -0.000000   0.014937
   11  S  1  X    0.000000  -0.000000  -0.000000  -0.398651  -0.000000
   12  S  1  Y    0.377854  -0.000000  -0.573528  -0.000000  -0.000000
   13  S  1  Z    0.000000   0.564194  -0.000000  -0.000000  -0.288429
   14  S  1 XX    0.000000  -0.000000  -0.000000   0.054836  -0.000000
   15  S  1 YY    0.000000  -0.000000  -0.000000  -0.014534  -0.000000
   16  S  1 ZZ    0.000000  -0.000000  -0.000000  -0.040302  -0.000000
   17  S  1 XY    0.065311  -0.000000   0.066526  -0.000000  -0.000000
   18  S  1 XZ    0.000000  -0.000200  -0.000000  -0.000000   0.056638
   19  S  1 YZ    0.000000  -0.000000  -0.000000  -0.000000  -0.000000
   20  S  1 XX    0.000000  -0.000000  -0.000000   0.012812  -0.000000
   21  S  1 YY    0.000000  -0.000000  -0.000000  -0.004514  -0.000000
   22  S  1 ZZ    0.000000  -0.000000  -0.000000  -0.008298  -0.000000
   23  S  1 XY    0.009847  -0.000000   0.012128  -0.000000  -0.000000
   24  S  1 XZ    0.000000  -0.000373  -0.000000  -0.000000   0.014170
   25  S  1 YZ    0.000000  -0.000000  -0.000000  -0.000000  -0.000000
   26  H  2  S    0.000000  -0.122301  -0.000000  -0.038374  -0.028978
   27  H  2  S    0.000000  -0.090817  -0.000000  -1.267057  -1.876124
   28  H  2  X    0.000000   0.001930  -0.000000   0.006718   0.011139
   29  H  2  Y    0.010006  -0.000000   0.017587  -0.000000  -0.000000
   30  H  2  Z    0.000000   0.000440  -0.000000   0.016160   0.016226
   31  H  3  S    0.000000   0.122301  -0.000000  -0.038374   0.028978
   32  H  3  S    0.000000   0.090817  -0.000000  -1.267057   1.876124
   33  H  3  X    0.000000  -0.001930  -0.000000   0.006718  -0.011139
   34  H  3  Y    0.010006  -0.000000   0.017587  -0.000000  -0.000000
   35  H  3  Z    0.000000   0.000440  -0.000000  -0.016160   0.016226
   36  C  4  S    0.000000  -0.000000  -0.000000  -0.059013  -0.000000
   37  C  4  S    0.000000  -0.000000  -0.000000   0.148892  -0.000000
   38  C  4  S    0.000000  -0.000000  -0.000000   2.080590  -0.000000
   39  C  4  X    0.000000  -0.000000  -0.000000   0.060092  -0.000000
   40  C  4  Y    0.317963  -0.000000   0.405156  -0.000000  -0.000000
   41  C  4  Z    0.000000  -0.093820  -0.000000  -0.000000   0.309447
   42  C  4  X    0.000000  -0.000000  -0.000000   0.324499  -0.000000
   43  C  4  Y    0.275707  -0.000000   0.613557  -0.000000  -0.000000
   44  C  4  Z    0.000000  -0.041122  -0.000000  -0.000000   1.474439
   45  C  4 XX    0.000000  -0.000000  -0.000000   0.003447  -0.000000
   46  C  4 YY    0.000000  -0.000000  -0.000000  -0.019879  -0.000000
   47  C  4 ZZ    0.000000  -0.000000  -0.000000   0.016432  -0.000000
   48  C  4 XY   -0.036375  -0.000000   0.012115  -0.000000  -0.000000
   49  C  4 XZ    0.000000  -0.042673  -0.000000  -0.000000   0.012068
   50  C  4 YZ    0.000000  -0.000000  -0.000000  -0.000000  -0.000000

                     16         17         18         19         20
                    0.2785     0.5424     0.5843     0.6535     0.6680
                     A          A          A          A          A   
    1  S  1  S   -0.018022   0.037165   0.000000  -0.083662   0.000000
    2  S  1  S   -0.112685   0.281041   0.000000  -0.620143   0.000000
    3  S  1  S    0.077966   0.473624   0.000000  -0.979357   0.000000
    4  S  1  S    1.550332   0.511820   0.000000   1.096927   0.000000
    5  S  1  X   -0.020387   0.069640   0.000000  -0.001971   0.000000
    6  S  1  Y    0.000000  -0.000000   0.000000   0.000000   0.138659
    7  S  1  Z    0.000000  -0.000000   0.007770   0.000000   0.000000
    8  S  1  X    0.160898   0.244404   0.000000  -0.024953   0.000000
    9  S  1  Y    0.000000  -0.000000   0.000000   0.000000   0.752869
   10  S  1  Z    0.000000  -0.000000  -0.027010   0.000000   0.000000
   11  S  1  X    1.565639   0.228797   0.000000   0.102422   0.000000
   12  S  1  Y    0.000000  -0.000000   0.000000   0.000000  -0.634483
   13  S  1  Z    0.000000  -0.000000  -0.369311   0.000000   0.000000
   14  S  1 XX   -0.118217   0.390801   0.000000  -0.116274   0.000000
   15  S  1 YY    0.072633  -0.169642   0.000000   0.205788   0.000000
   16  S  1 ZZ    0.045584  -0.221160   0.000000  -0.089515   0.000000
   17  S  1 XY    0.000000  -0.000000   0.000000   0.000000   0.358204
   18  S  1 XZ    0.000000  -0.000000   0.471676   0.000000   0.000000
   19  S  1 YZ    0.000000  -0.000000   0.000000   0.000000   0.000000
   20  S  1 XX   -0.033483   0.044208   0.000000  -0.018004   0.000000
   21  S  1 YY    0.018598  -0.019091   0.000000   0.026055   0.000000
   22  S  1 ZZ    0.014886  -0.025117   0.000000  -0.008051   0.000000
   23  S  1 XY    0.000000  -0.000000   0.000000   0.000000   0.042405
   24  S  1 XZ    0.000000  -0.000000   0.066674   0.000000   0.000000
   25  S  1 YZ    0.000000  -0.000000   0.000000   0.000000   0.000000
   26  H  2  S   -0.004619  -0.275424  -0.558834  -0.641954   0.000000
   27  H  2  S   -0.739760  -0.147501   0.221878   0.112971   0.000000
   28  H  2  X    0.011707   0.035450  -0.050501  -0.028144   0.000000
   29  H  2  Y    0.000000  -0.000000   0.000000   0.000000   0.009114
   30  H  2  Z    0.000808  -0.002554  -0.022140  -0.106112   0.000000
   31  H  3  S   -0.004619  -0.275424   0.558834  -0.641954   0.000000
   32  H  3  S   -0.739760  -0.147501  -0.221878   0.112971   0.000000
   33  H  3  X    0.011707   0.035450   0.050501  -0.028144   0.000000
   34  H  3  Y    0.000000  -0.000000   0.000000   0.000000   0.009114
   35  H  3  Z   -0.000808   0.002554  -0.022140   0.106112   0.000000
   36  C  4  S    0.005659   0.094436   0.000000  -0.140237   0.000000
   37  C  4  S   -0.086879   0.190773   0.000000  -0.177822   0.000000
   38  C  4  S   -0.538155  -0.322446   0.000000   0.484007   0.000000
   39  C  4  X    0.339888  -0.476564   0.000000   0.083402   0.000000
   40  C  4  Y    0.000000  -0.000000   0.000000   0.000000   0.599246
   41  C  4  Z    0.000000  -0.000000  -0.146467   0.000000   0.000000
   42  C  4  X    1.570285   1.621653   0.000000   0.421674   0.000000
   43  C  4  Y    0.000000  -0.000000   0.000000   0.000000  -0.635112
   44  C  4  Z    0.000000  -0.000000   0.812034   0.000000   0.000000
   45  C  4 XX    0.003027   0.053732   0.000000  -0.051131   0.000000
   46  C  4 YY   -0.001001  -0.003812   0.000000   0.233790   0.000000
   47  C  4 ZZ   -0.002026  -0.049920   0.000000  -0.182659   0.000000
   48  C  4 XY    0.000000  -0.000000   0.000000   0.000000  -0.160148
   49  C  4 XZ    0.000000  -0.000000  -0.204871   0.000000   0.000000
   50  C  4 YZ    0.000000  -0.000000   0.000000   0.000000   0.000000

                     21         22         23         24         25
                    0.7018     0.7213     0.7407     0.7852     0.7961
                     A          A          A          A          A   
    1  S  1  S    0.033357   0.000000   0.000000  -0.000000   0.013326
    2  S  1  S    0.254951   0.000000   0.000000  -0.000000   0.096988
    3  S  1  S    0.429466   0.000000   0.000000  -0.000000   0.142006
    4  S  1  S   -0.025049   0.000000   0.000000  -0.000000  -0.299545
    5  S  1  X   -0.182949   0.000000   0.000000  -0.000000   0.007651
    6  S  1  Y   -0.000000   0.000000   0.108161  -0.000000   0.000000
    7  S  1  Z   -0.000000  -0.216122   0.000000  -0.000000   0.000000
    8  S  1  X   -1.065225   0.000000   0.000000  -0.000000   0.048919
    9  S  1  Y   -0.000000   0.000000   0.582681  -0.000000   0.000000
   10  S  1  Z   -0.000000  -1.160765   0.000000  -0.000000   0.000000
   11  S  1  X    1.337034   0.000000   0.000000  -0.000000  -0.173387
   12  S  1  Y   -0.000000   0.000000  -0.821407  -0.000000   0.000000
   13  S  1  Z   -0.000000   1.179931   0.000000  -0.000000   0.000000
   14  S  1 XX    0.194038   0.000000   0.000000  -0.000000  -0.018882
   15  S  1 YY   -0.049425   0.000000   0.000000  -0.000000   0.811931
   16  S  1 ZZ   -0.144613   0.000000   0.000000  -0.000000  -0.793049
   17  S  1 XY   -0.000000   0.000000   0.296017  -0.000000   0.000000
   18  S  1 XZ   -0.000000  -0.087858   0.000000  -0.000000   0.000000
   19  S  1 YZ   -0.000000   0.000000   0.000000   0.940482   0.000000
   20  S  1 XX    0.010838   0.000000   0.000000  -0.000000  -0.000272
   21  S  1 YY    0.000612   0.000000   0.000000  -0.000000   0.102513
   22  S  1 ZZ   -0.011450   0.000000   0.000000  -0.000000  -0.102241
   23  S  1 XY   -0.000000   0.000000   0.046687  -0.000000   0.000000
   24  S  1 XZ   -0.000000  -0.012802   0.000000  -0.000000   0.000000
   25  S  1 YZ   -0.000000   0.000000   0.000000   0.119247   0.000000
   26  H  2  S   -0.129143  -0.121936   0.000000  -0.000000   0.210262
   27  H  2  S    0.065663  -0.154575   0.000000  -0.000000  -0.082157
   28  H  2  X   -0.060254  -0.045929   0.000000  -0.000000   0.020229
   29  H  2  Y   -0.000000   0.000000  -0.056032   0.014446   0.000000
   30  H  2  Z   -0.009477   0.020770   0.000000  -0.000000   0.046145
   31  H  3  S   -0.129143   0.121936   0.000000  -0.000000   0.210262
   32  H  3  S    0.065663   0.154575   0.000000  -0.000000  -0.082157
   33  H  3  X   -0.060254   0.045929   0.000000  -0.000000   0.020229
   34  H  3  Y   -0.000000   0.000000  -0.056032  -0.014446   0.000000
   35  H  3  Z    0.009477   0.020770   0.000000  -0.000000  -0.046145
   36  C  4  S    0.035117   0.000000   0.000000  -0.000000  -0.048675
   37  C  4  S    0.158318   0.000000   0.000000  -0.000000  -0.157236
   38  C  4  S   -0.695512   0.000000   0.000000  -0.000000   0.239589
   39  C  4  X   -0.153864   0.000000   0.000000  -0.000000  -0.054141
   40  C  4  Y   -0.000000   0.000000  -0.872809  -0.000000   0.000000
   41  C  4  Z   -0.000000   0.046870   0.000000  -0.000000   0.000000
   42  C  4  X    0.339416   0.000000   0.000000  -0.000000  -0.174773
   43  C  4  Y   -0.000000   0.000000   0.945910  -0.000000   0.000000
   44  C  4  Z   -0.000000   0.053536   0.000000  -0.000000   0.000000
   45  C  4 XX   -0.159622   0.000000   0.000000  -0.000000  -0.001456
   46  C  4 YY    0.143507   0.000000   0.000000  -0.000000   0.010229
   47  C  4 ZZ    0.016116   0.000000   0.000000  -0.000000  -0.008773
   48  C  4 XY   -0.000000   0.000000  -0.085357  -0.000000   0.000000
   49  C  4 XZ   -0.000000   0.061043   0.000000  -0.000000   0.000000
   50  C  4 YZ   -0.000000   0.000000   0.000000   0.132520   0.000000

                     26         27         28         29         30
                    0.8124     0.8538     0.8946     1.0750     1.0829
                     A          A          A          A          A   
    1  S  1  S    0.000000  -0.000000  -0.126204   0.110551   0.000000
    2  S  1  S    0.000000  -0.000000  -0.922462   0.801578   0.000000
    3  S  1  S    0.000000  -0.000000  -1.332583   1.103232   0.000000
    4  S  1  S    0.000000  -0.000000   2.757560  -2.700574   0.000000
    5  S  1  X    0.000000  -0.000000  -0.030514   0.003190   0.000000
    6  S  1  Y   -0.135009  -0.000000   0.000000  -0.000000   0.000000
    7  S  1  Z    0.000000  -0.005774   0.000000  -0.000000   0.053630
    8  S  1  X    0.000000  -0.000000  -0.222614   0.088544   0.000000
    9  S  1  Y   -0.736718  -0.000000   0.000000  -0.000000   0.000000
   10  S  1  Z    0.000000  -0.014364   0.000000  -0.000000   0.211823
   11  S  1  X    0.000000  -0.000000   1.205695  -1.366463   0.000000
   12  S  1  Y    0.791136  -0.000000   0.000000  -0.000000   0.000000
   13  S  1  Z    0.000000  -0.314010   0.000000  -0.000000  -0.742108
   14  S  1 XX    0.000000  -0.000000   0.007348  -0.134950   0.000000
   15  S  1 YY    0.000000  -0.000000  -0.075323  -0.025765   0.000000
   16  S  1 ZZ    0.000000  -0.000000   0.067975   0.160715   0.000000
   17  S  1 XY    0.719794  -0.000000   0.000000  -0.000000   0.000000
   18  S  1 XZ    0.000000  -0.040052   0.000000  -0.000000  -0.886378
   19  S  1 YZ    0.000000  -0.000000   0.000000  -0.000000   0.000000
   20  S  1 XX    0.000000  -0.000000  -0.015082   0.000962   0.000000
   21  S  1 YY    0.000000  -0.000000  -0.002402  -0.013730   0.000000
   22  S  1 ZZ    0.000000  -0.000000   0.017483   0.012767   0.000000
   23  S  1 XY    0.092957  -0.000000   0.000000  -0.000000   0.000000
   24  S  1 XZ    0.000000   0.003304   0.000000  -0.000000  -0.116464
   25  S  1 YZ    0.000000  -0.000000   0.000000  -0.000000   0.000000
   26  H  2  S    0.000000   0.126660   0.222172  -0.191392  -0.560924
   27  H  2  S    0.000000  -1.656827  -1.174845  -0.657751  -0.427427
   28  H  2  X    0.000000   0.137828   0.051634   0.060041  -0.136400
   29  H  2  Y   -0.055997  -0.000000   0.000000  -0.000000   0.000000
   30  H  2  Z    0.000000   0.197126   0.171057   0.132728   0.028543
   31  H  3  S    0.000000  -0.126660   0.222172  -0.191392   0.560924
   32  H  3  S    0.000000   1.656827  -1.174845  -0.657751   0.427427
   33  H  3  X    0.000000  -0.137828   0.051634   0.060041   0.136400
   34  H  3  Y   -0.055997  -0.000000   0.000000  -0.000000   0.000000
   35  H  3  Z    0.000000   0.197126  -0.171057  -0.132728   0.028543
   36  C  4  S    0.000000  -0.000000  -0.184609  -0.804501   0.000000
   37  C  4  S    0.000000  -0.000000  -0.468351  -1.752433   0.000000
   38  C  4  S    0.000000  -0.000000   0.538443   4.502537   0.000000
   39  C  4  X    0.000000  -0.000000  -0.670522   0.119010   0.000000
   40  C  4  Y   -0.013430  -0.000000   0.000000  -0.000000   0.000000
   41  C  4  Z    0.000000  -0.901574   0.000000  -0.000000  -0.047341
   42  C  4  X    0.000000  -0.000000   2.075088  -0.793588   0.000000
   43  C  4  Y   -0.358486  -0.000000   0.000000  -0.000000   0.000000
   44  C  4  Z    0.000000   2.292643   0.000000  -0.000000   1.573375
   45  C  4 XX    0.000000  -0.000000  -0.189622  -0.037652   0.000000
   46  C  4 YY    0.000000  -0.000000  -0.084015   0.069978   0.000000
   47  C  4 ZZ    0.000000  -0.000000   0.273638  -0.032326   0.000000
   48  C  4 XY   -0.182537  -0.000000   0.000000  -0.000000   0.000000
   49  C  4 XZ    0.000000   0.307076   0.000000  -0.000000  -0.082324
   50  C  4 YZ    0.000000  -0.000000   0.000000  -0.000000   0.000000

                     31         32         33         34         35
                    1.1750     1.2427     1.5204     1.6901     1.7017
                     A          A          A          A          A   
    1  S  1  S   -0.000000  -0.097187  -0.000000   0.000000  -0.005891
    2  S  1  S   -0.000000  -0.708354  -0.000000   0.000000  -0.032484
    3  S  1  S   -0.000000  -0.942063  -0.000000   0.000000   0.013652
    4  S  1  S   -0.000000   1.596427  -0.000000   0.000000   0.748651
    5  S  1  X   -0.000000  -0.066821  -0.000000   0.000000   0.063807
    6  S  1  Y   -0.000000  -0.000000  -0.001015   0.000000  -0.000000
    7  S  1  Z   -0.000000  -0.000000  -0.000000   0.003524  -0.000000
    8  S  1  X   -0.000000  -0.168318  -0.000000   0.000000   0.289559
    9  S  1  Y   -0.000000  -0.000000   0.062174   0.000000  -0.000000
   10  S  1  Z   -0.000000  -0.000000  -0.000000   0.007734  -0.000000
   11  S  1  X   -0.000000   1.038698  -0.000000   0.000000   0.262992
   12  S  1  Y   -0.000000  -0.000000   0.324262   0.000000  -0.000000
   13  S  1  Z   -0.000000  -0.000000  -0.000000  -0.284033  -0.000000
   14  S  1 XX   -0.000000   0.952480  -0.000000   0.000000   0.202733
   15  S  1 YY   -0.000000  -0.467434  -0.000000   0.000000  -0.017557
   16  S  1 ZZ   -0.000000  -0.485045  -0.000000   0.000000  -0.185176
   17  S  1 XY   -0.000000  -0.000000   0.565082   0.000000  -0.000000
   18  S  1 XZ   -0.000000  -0.000000  -0.000000  -0.131254  -0.000000
   19  S  1 YZ   -0.175338  -0.000000  -0.000000   0.000000  -0.000000
   20  S  1 XX   -0.000000   0.138906  -0.000000   0.000000   0.018500
   21  S  1 YY   -0.000000  -0.068859  -0.000000   0.000000   0.008863
   22  S  1 ZZ   -0.000000  -0.070047  -0.000000   0.000000  -0.027363
   23  S  1 XY   -0.000000  -0.000000   0.083937   0.000000  -0.000000
   24  S  1 XZ   -0.000000  -0.000000  -0.000000  -0.021551  -0.000000
   25  S  1 YZ   -0.027213  -0.000000  -0.000000   0.000000  -0.000000
   26  H  2  S   -0.000000   0.106511  -0.000000  -0.560171  -0.621355
   27  H  2  S   -0.000000  -0.146049  -0.000000  -0.394230  -0.244181
   28  H  2  X   -0.000000   0.081053  -0.000000   0.450932  -0.427312
   29  H  2  Y    0.355125  -0.000000   0.356195   0.000000  -0.000000
   30  H  2  Z   -0.000000  -0.040647  -0.000000  -0.485123   0.038640
   31  H  3  S   -0.000000   0.106511  -0.000000   0.560171  -0.621355
   32  H  3  S   -0.000000  -0.146049  -0.000000   0.394230  -0.244181
   33  H  3  X   -0.000000   0.081053  -0.000000  -0.450932  -0.427312
   34  H  3  Y   -0.355125  -0.000000   0.356195   0.000000  -0.000000
   35  H  3  Z   -0.000000   0.040647  -0.000000  -0.485123  -0.038640
   36  C  4  S   -0.000000  -0.183692  -0.000000   0.000000  -0.176672
   37  C  4  S   -0.000000  -0.533181  -0.000000   0.000000  -0.360631
   38  C  4  S   -0.000000  -0.618108  -0.000000   0.000000   0.548660
   39  C  4  X   -0.000000   0.608024  -0.000000   0.000000   0.119857
   40  C  4  Y   -0.000000  -0.000000  -0.081001   0.000000  -0.000000
   41  C  4  Z   -0.000000  -0.000000  -0.000000  -0.065837  -0.000000
   42  C  4  X   -0.000000   0.183919  -0.000000   0.000000   1.221968
   43  C  4  Y   -0.000000  -0.000000  -0.480932   0.000000  -0.000000
   44  C  4  Z   -0.000000  -0.000000  -0.000000   1.332754  -0.000000
   45  C  4 XX   -0.000000   0.092612  -0.000000   0.000000  -0.183552
   46  C  4 YY   -0.000000  -0.109124  -0.000000   0.000000  -0.552944
   47  C  4 ZZ   -0.000000   0.016512  -0.000000   0.000000   0.736496
   48  C  4 XY   -0.000000  -0.000000   0.780521   0.000000  -0.000000
   49  C  4 XZ   -0.000000  -0.000000  -0.000000   0.316687  -0.000000
   50  C  4 YZ    0.623115  -0.000000  -0.000000   0.000000  -0.000000

                     36         37         38         39         40
                    1.9141     1.9643     2.0700     2.0770     2.4246
                     A          A          A          A          A   
    1  S  1  S    0.060142   0.000000   0.000000   0.000000  -0.026562
    2  S  1  S    0.400376   0.000000   0.000000   0.000000  -0.217765
    3  S  1  S    0.367207   0.000000   0.000000   0.000000  -0.369523
    4  S  1  S   -2.653371   0.000000   0.000000   0.000000   0.230177
    5  S  1  X   -0.164503   0.000000   0.000000   0.000000  -0.107882
    6  S  1  Y    0.000000   0.017174   0.000000   0.000000  -0.000000
    7  S  1  Z    0.000000   0.000000   0.032813   0.000000  -0.000000
    8  S  1  X   -0.709768   0.000000   0.000000   0.000000  -0.417043
    9  S  1  Y    0.000000   0.105475   0.000000   0.000000  -0.000000
   10  S  1  Z    0.000000   0.000000   0.195002   0.000000  -0.000000
   11  S  1  X   -1.268623   0.000000   0.000000   0.000000   0.130552
   12  S  1  Y    0.000000  -0.027580   0.000000   0.000000  -0.000000
   13  S  1  Z    0.000000   0.000000   0.002165   0.000000  -0.000000
   14  S  1 XX   -0.723311   0.000000   0.000000   0.000000  -0.296202
   15  S  1 YY    0.413556   0.000000   0.000000   0.000000   0.122244
   16  S  1 ZZ    0.309755   0.000000   0.000000   0.000000   0.173958
   17  S  1 XY    0.000000   0.201110   0.000000   0.000000  -0.000000
   18  S  1 XZ    0.000000   0.000000   0.355799   0.000000  -0.000000
   19  S  1 YZ    0.000000   0.000000   0.000000  -0.103387  -0.000000
   20  S  1 XX   -0.063481   0.000000   0.000000   0.000000   0.005006
   21  S  1 YY    0.044111   0.000000   0.000000   0.000000  -0.010809
   22  S  1 ZZ    0.019370   0.000000   0.000000   0.000000   0.005803
   23  S  1 XY    0.000000   0.030700   0.000000   0.000000  -0.000000
   24  S  1 XZ    0.000000   0.000000   0.063924   0.000000  -0.000000
   25  S  1 YZ    0.000000   0.000000   0.000000  -0.027762  -0.000000
   26  H  2  S   -0.313010   0.000000  -0.373176   0.000000  -0.051754
   27  H  2  S    0.113080   0.000000   0.370785   0.000000  -0.323450
   28  H  2  X    0.233854   0.000000  -0.570792   0.000000  -0.539415
   29  H  2  Y    0.000000  -0.759362   0.000000  -0.778951  -0.000000
   30  H  2  Z   -0.208001   0.000000  -0.054882   0.000000   0.677694
   31  H  3  S   -0.313010   0.000000   0.373176   0.000000  -0.051754
   32  H  3  S    0.113080   0.000000  -0.370785   0.000000  -0.323450
   33  H  3  X    0.233854   0.000000   0.570792   0.000000  -0.539415
   34  H  3  Y    0.000000  -0.759362   0.000000   0.778951  -0.000000
   35  H  3  Z    0.208001   0.000000  -0.054882   0.000000  -0.677694
   36  C  4  S   -0.399024   0.000000   0.000000   0.000000   0.078441
   37  C  4  S   -0.684141   0.000000   0.000000   0.000000   0.236734
   38  C  4  S    2.838012   0.000000   0.000000   0.000000   0.578055
   39  C  4  X   -0.314977   0.000000   0.000000   0.000000   0.170945
   40  C  4  Y    0.000000   0.217207   0.000000   0.000000  -0.000000
   41  C  4  Z    0.000000   0.000000  -0.257849   0.000000  -0.000000
   42  C  4  X   -1.688563   0.000000   0.000000   0.000000   0.387225
   43  C  4  Y    0.000000   0.268885   0.000000   0.000000  -0.000000
   44  C  4  Z    0.000000   0.000000  -0.122858   0.000000  -0.000000
   45  C  4 XX    0.921058   0.000000   0.000000   0.000000   1.112162
   46  C  4 YY   -0.972472   0.000000   0.000000   0.000000  -0.247777
   47  C  4 ZZ    0.051414   0.000000   0.000000   0.000000  -0.864385
   48  C  4 XY    0.000000   0.807897   0.000000   0.000000  -0.000000
   49  C  4 XZ    0.000000   0.000000   0.956787   0.000000  -0.000000
   50  C  4 YZ    0.000000   0.000000   0.000000   1.024400  -0.000000

                     41         42         43         44         45
                    2.7549     2.7674     4.9032     4.9044     4.9702
                     A          A          A          A          A   
    1  S  1  S    0.013238  -0.000000  -0.000000  -0.002586  -0.000000
    2  S  1  S    0.104074  -0.000000  -0.000000  -0.019578  -0.000000
    3  S  1  S    0.149904  -0.000000  -0.000000  -0.023954  -0.000000
    4  S  1  S   -0.174358  -0.000000  -0.000000   0.064926  -0.000000
    5  S  1  X    0.032417  -0.000000  -0.000000  -0.000838  -0.000000
    6  S  1  Y   -0.000000  -0.000000  -0.000000   0.000000   0.003372
    7  S  1  Z   -0.000000   0.015250  -0.000000   0.000000  -0.000000
    8  S  1  X    0.101018  -0.000000  -0.000000  -0.001926  -0.000000
    9  S  1  Y   -0.000000  -0.000000  -0.000000   0.000000   0.006865
   10  S  1  Z   -0.000000   0.090342  -0.000000   0.000000  -0.000000
   11  S  1  X   -0.125700  -0.000000  -0.000000   0.036631  -0.000000
   12  S  1  Y   -0.000000  -0.000000  -0.000000   0.000000  -0.091016
   13  S  1  Z   -0.000000  -0.106401  -0.000000   0.000000  -0.000000
   14  S  1 XX    0.053853  -0.000000  -0.000000   0.013816  -0.000000
   15  S  1 YY    0.019258  -0.000000  -0.000000  -0.358385  -0.000000
   16  S  1 ZZ   -0.073110  -0.000000  -0.000000   0.344569  -0.000000
   17  S  1 XY   -0.000000  -0.000000  -0.000000   0.000000  -0.481831
   18  S  1 XZ   -0.000000   0.151958  -0.000000   0.000000  -0.000000
   19  S  1 YZ   -0.000000  -0.000000  -0.404743   0.000000  -0.000000
   20  S  1 XX   -0.024642  -0.000000  -0.000000  -0.016225  -0.000000
   21  S  1 YY    0.031083  -0.000000  -0.000000   0.901992  -0.000000
   22  S  1 ZZ   -0.006442  -0.000000  -0.000000  -0.885767  -0.000000
   23  S  1 XY   -0.000000  -0.000000  -0.000000   0.000000   1.034764
   24  S  1 XZ   -0.000000   0.031554  -0.000000   0.000000  -0.000000
   25  S  1 YZ   -0.000000  -0.000000   1.032377   0.000000  -0.000000
   26  H  2  S   -1.186634  -1.330315  -0.000000   0.051740  -0.000000
   27  H  2  S   -0.443569  -0.604244  -0.000000  -0.013177  -0.000000
   28  H  2  X    0.821316   0.516516  -0.000000  -0.027464  -0.000000
   29  H  2  Y   -0.000000  -0.000000  -0.022449   0.000000   0.000013
   30  H  2  Z    0.866721   1.041449  -0.000000  -0.013469  -0.000000
   31  H  3  S   -1.186634   1.330315  -0.000000   0.051740  -0.000000
   32  H  3  S   -0.443569   0.604244  -0.000000  -0.013177  -0.000000
   33  H  3  X    0.821316  -0.516516  -0.000000  -0.027464  -0.000000
   34  H  3  Y   -0.000000  -0.000000   0.022449   0.000000   0.000013
   35  H  3  Z   -0.866721   1.041449  -0.000000   0.013469  -0.000000
   36  C  4  S    0.420835  -0.000000  -0.000000  -0.008643  -0.000000
   37  C  4  S    1.055791  -0.000000  -0.000000  -0.025022  -0.000000
   38  C  4  S    1.581864  -0.000000  -0.000000  -0.066713  -0.000000
   39  C  4  X    0.874729  -0.000000  -0.000000  -0.019844  -0.000000
   40  C  4  Y   -0.000000  -0.000000  -0.000000   0.000000   0.018176
   41  C  4  Z   -0.000000   1.450275  -0.000000   0.000000  -0.000000
   42  C  4  X    0.333420  -0.000000  -0.000000   0.028398  -0.000000
   43  C  4  Y   -0.000000  -0.000000  -0.000000   0.000000   0.118599
   44  C  4  Z   -0.000000   1.041742  -0.000000   0.000000  -0.000000
   45  C  4 XX   -0.426364  -0.000000  -0.000000   0.011430  -0.000000
   46  C  4 YY   -0.737664  -0.000000  -0.000000   0.058814  -0.000000
   47  C  4 ZZ    1.164027  -0.000000  -0.000000  -0.070244  -0.000000
   48  C  4 XY   -0.000000  -0.000000  -0.000000   0.000000  -0.148276
   49  C  4 XZ   -0.000000   1.409286  -0.000000   0.000000  -0.000000
   50  C  4 YZ   -0.000000  -0.000000   0.054285   0.000000  -0.000000

                     46         47
                    5.0258     5.1290
                     A          A   
    1  S  1  S    0.000000   0.033674
    2  S  1  S    0.000000   0.236527
    3  S  1  S    0.000000   0.270757
    4  S  1  S    0.000000  -0.977601
    5  S  1  X    0.000000  -0.012582
    6  S  1  Y    0.000000   0.000000
    7  S  1  Z    0.002026   0.000000
    8  S  1  X    0.000000  -0.074465
    9  S  1  Y    0.000000   0.000000
   10  S  1  Z   -0.000865   0.000000
   11  S  1  X    0.000000  -0.598417
   12  S  1  Y    0.000000   0.000000
   13  S  1  Z   -0.133975   0.000000
   14  S  1 XX    0.000000  -0.661548
   15  S  1 YY    0.000000   0.329268
   16  S  1 ZZ    0.000000   0.332279
   17  S  1 XY    0.000000   0.000000
   18  S  1 XZ   -0.519524   0.000000
   19  S  1 YZ    0.000000   0.000000
   20  S  1 XX    0.000000   1.041409
   21  S  1 YY    0.000000  -0.506318
   22  S  1 ZZ    0.000000  -0.535091
   23  S  1 XY    0.000000   0.000000
   24  S  1 XZ    1.035392   0.000000
   25  S  1 YZ    0.000000   0.000000
   26  H  2  S    0.022771  -0.082320
   27  H  2  S   -0.162590   0.034050
   28  H  2  X    0.035768   0.051159
   29  H  2  Y    0.000000   0.000000
   30  H  2  Z   -0.068567   0.018577
   31  H  3  S   -0.022771  -0.082320
   32  H  3  S    0.162590   0.034050
   33  H  3  X   -0.035768   0.051159
   34  H  3  Y    0.000000   0.000000
   35  H  3  Z   -0.068567  -0.018577
   36  C  4  S    0.000000  -0.009920
   37  C  4  S    0.000000   0.039292
   38  C  4  S    0.000000   0.851406
   39  C  4  X    0.000000  -0.163220
   40  C  4  Y    0.000000   0.000000
   41  C  4  Z   -0.056758   0.000000
   42  C  4  X    0.000000  -0.483363
   43  C  4  Y    0.000000   0.000000
   44  C  4  Z    0.337045   0.000000
   45  C  4 XX    0.000000   0.141719
   46  C  4 YY    0.000000  -0.128099
   47  C  4 ZZ    0.000000  -0.013620
   48  C  4 XY    0.000000   0.000000
   49  C  4 XZ   -0.199122   0.000000
   50  C  4 YZ    0.000000   0.000000
 ...... END OF RHF CALCULATION ......
 STEP CPU TIME =     0.09 TOTAL CPU TIME =        0.3 (    0.0 MIN)
 TOTAL WALL CLOCK TIME=        0.3 SECONDS, CPU UTILIZATION IS  93.75%

     ----------------------------------------------------------------
     PROPERTY VALUES FOR THE RHF   SELF-CONSISTENT FIELD WAVEFUNCTION
     ----------------------------------------------------------------

          -----------------
          ENERGY COMPONENTS
          -----------------

         WAVEFUNCTION NORMALIZATION =       1.0000000000

                ONE ELECTRON ENERGY =    -687.9990171041
                TWO ELECTRON ENERGY =     208.0747570134
           NUCLEAR REPULSION ENERGY =      43.3968601281
                                      ------------------
                       TOTAL ENERGY =    -436.5273999626

 ELECTRON-ELECTRON POTENTIAL ENERGY =     208.0747570134
  NUCLEUS-ELECTRON POTENTIAL ENERGY =   -1124.3025789640
   NUCLEUS-NUCLEUS POTENTIAL ENERGY =      43.3968601281
                                      ------------------
             TOTAL POTENTIAL ENERGY =    -872.8309618226
               TOTAL KINETIC ENERGY =     436.3035618600
                 VIRIAL RATIO (V/T) =       2.0005130329

  ...... PI ENERGY ANALYSIS ......

 ENERGY ANALYSIS:
            FOCK ENERGY=   -271.8494737115
          BARE H ENERGY=   -687.9990171041
     ELECTRONIC ENERGY =   -479.9242454078
         KINETIC ENERGY=    436.3035618600
          N-N REPULSION=     43.3968601281
           TOTAL ENERGY=   -436.5273852797
        SIGMA PART(1+2)=   -430.9113704456
               (K,V1,2)=    398.4964086010  -1002.5390736102    173.1312945636
           PI PART(1+2)=    -49.0128749622
               (K,V1,2)=     37.8071532589   -121.7635053539     34.9434771327
  SIGMA SKELETON, ERROR=   -387.5145103175     -0.0000000000
             MIXED PART= 0.00000E+00 0.00000E+00 0.00000E+00 0.00000E+00
 ...... END OF PI ENERGY ANALYSIS ......

          ---------------------------------------
          MULLIKEN AND LOWDIN POPULATION ANALYSES
          ---------------------------------------

     ATOMIC MULLIKEN POPULATION IN EACH MOLECULAR ORBITAL

                      1          2          3          4          5

                  2.000000   2.000000   2.000000   2.000000   2.000000

    1             1.999990   0.000217   1.998587   1.999921   1.999993
    2             0.000000   0.000110   0.000051   0.000003  -0.000000
    3             0.000000   0.000110   0.000051   0.000003  -0.000000
    4             0.000009   1.999562   0.001310   0.000074   0.000007

                      6          7          8          9         10

                  2.000000   2.000000   2.000000   2.000000   2.000000

    1             2.000003   0.879555   0.830645   0.111419   1.229160
    2             0.000001   0.107796   0.235234   0.432487   0.069607
    3             0.000001   0.107796   0.235234   0.432487   0.069607
    4            -0.000005   0.904854   0.698887   1.023606   0.631627

                     11         12

                  2.000000   2.000000

    1             1.220005   1.860192
    2             0.003434   0.049599
    3             0.003434   0.049599
    4             0.773127   0.040610

               ----- POPULATIONS IN EACH AO -----
                             MULLIKEN      LOWDIN
              1  S  1  S      2.00005     1.99463
              2  S  1  S      2.00860     1.27032
              3  S  1  S      0.90556     0.74632
              4  S  1  S      0.96687     0.51814
              5  S  1  X      2.00014     1.98114
              6  S  1  Y      2.00019     1.98680
              7  S  1  Z      1.99962     1.98624
              8  S  1  X      0.66453     0.62174
              9  S  1  Y      0.57828     0.56007
             10  S  1  Z      0.98554     0.98864
             11  S  1  X      0.34625     0.46659
             12  S  1  Y      0.61633     0.62787
             13  S  1  Z      0.97724     0.93787
             14  S  1 XX      0.01286     0.25469
             15  S  1 YY      0.03155     0.23252
             16  S  1 ZZ      0.02452     0.23883
             17  S  1 XY      0.00904     0.02422
             18  S  1 XZ      0.00000     0.01326
             19  S  1 YZ      0.00000     0.00000
             20  S  1 XX      0.00047     0.18233
             21  S  1 YY      0.00120     0.18323
             22  S  1 ZZ      0.00068     0.18233
             23  S  1 XY      0.00017     0.00072
             24  S  1 XZ      0.00000     0.00014
             25  S  1 YZ      0.00000     0.00000
             26  H  2  S      0.74720     0.59925
             27  H  2  S      0.11886     0.23569
             28  H  2  X      0.00899     0.02363
             29  H  2  Y      0.00343     0.01226
             30  H  2  Z      0.01984     0.03941
             31  H  3  S      0.74720     0.59925
             32  H  3  S      0.11886     0.23569
             33  H  3  X      0.00899     0.02363
             34  H  3  Y      0.00343     0.01226
             35  H  3  Z      0.01984     0.03941
             36  C  4  S      2.00341     1.88653
             37  C  4  S      0.69932     0.50775
             38  C  4  S      0.52976     0.32854
             39  C  4  X      0.73068     0.65612
             40  C  4  Y      0.35807     0.32771
             41  C  4  Z      0.74450     0.66625
             42  C  4  X      0.25729     0.38179
             43  C  4  Y      0.40159     0.42600
             44  C  4  Z      0.28731     0.43006
             45  C  4 XX      0.00909     0.18932
             46  C  4 YY      0.00677     0.09813
             47  C  4 ZZ      0.01347     0.18040
             48  C  4 XY      0.03240     0.02210
             49  C  4 XZ      0.00000     0.08020
             50  C  4 YZ      0.00000     0.00000

          ----- MULLIKEN ATOMIC OVERLAP POPULATIONS -----
          (OFF-DIAGONAL ELEMENTS NEED TO BE MULTIPLIED BY 2)

             1           2           3           4

    1   15.7178232
    2   -0.0404871   0.5667869
    3   -0.0404871  -0.0323719   0.5667869
    4    0.4928387   0.4043948   0.4043948   4.7720388

          TOTAL MULLIKEN AND LOWDIN ATOMIC POPULATIONS
       ATOM         MULL.POP.    CHARGE          LOW.POP.     CHARGE
    1 S            16.129688   -0.129688        15.998629    0.001371
    2 H             0.898323    0.101677         0.910235    0.089765
    3 H             0.898323    0.101677         0.910235    0.089765
    4 C             6.073667   -0.073667         6.180900   -0.180900

          MULLIKEN SPHERICAL HARMONIC POPULATIONS
       ATOM           S       P       D      F      G      H      I    TOTAL
    1 S             5.88   10.17    0.08   0.00   0.00   0.00   0.00   16.13
    2 H             0.87    0.03    0.00   0.00   0.00   0.00   0.00    0.90
    3 H             0.87    0.03    0.00   0.00   0.00   0.00   0.00    0.90
    4 C             3.23    2.78    0.06   0.00   0.00   0.00   0.00    6.07

          -------------------------------
          BOND ORDER AND VALENCE ANALYSIS     BOND ORDER THRESHOLD=0.050
          -------------------------------

                   BOND                       BOND                       BOND
  ATOM PAIR DIST  ORDER      ATOM PAIR DIST  ORDER      ATOM PAIR DIST  ORDER
    1   4  1.680  1.959        2   4  1.080  0.964        3   4  1.080  0.964

                       TOTAL       BONDED        FREE
      ATOM            VALENCE     VALENCE     VALENCE
    1 S                 1.967       1.967      -0.000
    2 H                 0.959       0.959       0.000
    3 H                 0.959       0.959      -0.000
    4 C                 3.887       3.887       0.000

          ---------------------
          ELECTROSTATIC MOMENTS
          ---------------------

 POINT   1           X           Y           Z (BOHR)    CHARGE
                 0.786235    0.000000    0.000000        0.00 (A.U.)
         DX          DY          DZ         /D/  (DEBYE)
     2.281642    0.000000    0.000000    2.281642
 ...... END OF PROPERTY EVALUATION ......
 STEP CPU TIME =     0.01 TOTAL CPU TIME =        0.3 (    0.0 MIN)
 TOTAL WALL CLOCK TIME=        0.3 SECONDS, CPU UTILIZATION IS  96.88%

 **************************************************************
 *                                                            *
 *         ENTERING VB2000 INTERFACED INTO GAMESS(US)         *
 *                                                            *
 **************************************************************

 **************************************************************
 *                                                            *
 *                        V B 2 0 0 0                         *
 *                                                            *
 *       An ab initio Valence-Bond Program Based on the       *
 *           Generalized Product Function Method and          *
 *                   the Algebrant Algorithm                  *
 *                                                            *
 *                   Version 2.7 October 2013                 *
 *                      GAMESS(US) Version                    *
 *                     Compiler: gfortran                     *
 *                                                            *
 *         Jiabo Li*, Brian Duke** and Roy McWeeny***         *
 *                                                            *
 *        * SciNet Technologies, 9943 Fieldthorn St.,         *
 *                   San Diego, CA 92127, USA                 *
 *                                                            *
 *  ** Monash University Institute of Pharmaceutical Sciences,*
 *     381 Royal Pde, Parkville, Victoria, 3052, Australia    *
 *                                                            *
 * *** Department of Chemistry, University of Pisa,           *
 *     56100 Pisa, Italy                                      *
 *                                                            *
 *  Reference for the software:                               *
 *     Jiabo Li, Brian Duke, and Roy McWeeny, VB2000 Version  *
 *     2.7, SciNet Technologies, San Diego, CA, 2013          *
 *     URL: http://www.scinetec.com or http://www.vb2000.net  *
 *                                                            *
 *  References for the theory:                                *
 *     General:                                               *
 *     Jiabo Li, and Roy McWeeny, "VB2000: Pushing Valence    *
 *     Bond Theory to New Limits", Int. J. Quantum Chem.,     *
 *     89(2002)208-216.                                       *
 *                                                            *
 *     Spin densities:-                                       *
 *     Jiabo Li, Brian J. Duke, Thomas M. Klapoetke, and Roy  *
 *     McWeeny, Spin-Density of Spin-Free Valence Bond Wave   *
 *     Functions and Its Implementation in VB2000. J. Theor.  *
 *     Comp. Chem. 7(2008)853-867.                            *
 *                                                            *
 *     Spin coupled - n electrons in m orbitals:-             *
 *     Peter B. Karadakov, David L. Cooper, Brian J. Duke,    *
 *     and Jiabo Li, Spin-Coupled Theory for N Electrons in   *
 *     M Orbitals Active Spaces,  J. Phys. Chem. A, 116,      *
 *     7238 - 7244, 2012                                      *
 *                                                            *
 *  Copyright (C) 2000-2013 by SciNet Technologies            *
 **************************************************************

 JOB NAME IS exam-vb15                                                       

 VB2000 DIRECTORY IS: /home/brian/qchem/gamess/vb2000                                                 
 MAXIMUM MEMORY USE IS:     6500000
 THIS IS TAKEN AS THE MAXIMUM OF THE UNUSED MEMORY REQUESTED
 IN GAMESS $SYSTEM BLOCK AND MEMORY REQUESTED IN VB2000 DATA

 Input of molecule
 =================
 #! VB(2)/CC-PVDZ PRINTALL                                                       
                                                                                 
 Title: TEST CH2S                                                                       

 Charge =  0 Multiplicity =  1

 ATOM      ATOMIC                      COORDINATES (ANGS)
           CHARGE         X                   Y                   Z
 S          16.0    -0.1204999999        0.0000000000        0.0000000000
 H           1.0     2.1194999990        0.0000000000        0.9229999996
 H           1.0     2.1194999990        0.0000000000       -0.9229999996
 C           6.0     1.5594999993        0.0000000000        0.0000000000

 Hartree-Fock Energy from Gamess run =    -436.527399962604

 Basis set size =   50

                    PARAMETER LIMIT VALUES
 Max. no. of atoms                    MAXCEN =   200
 Max. no. of basis functions          MAXBFN =   726
 Max. no. of shells                   MAXSHL =   500
 Max. no. of total primitives         MAXEXP =  1000
 Max. no. of primitives per orbital   MAXPRM =    15
 Max. no. of atoms * no. of orbitals  MAXNAB = 72600
 Increase max basis set size by       NEXTRA =    20
 Max. size for Rumer data             MAXST1 = 33334
 Max. no. of orbitals in group        MAXNOB =   200
 Max. no. of CUBE orbitals            MAXCUB =   100
 Max. no. of groups                   MAXGRP =    99

 BASIS IN $BASIS IS CCD     

 VBO LIB IS: /home/brian/qchem/gamess/vb2000/VBOLIB/VBOLIBCCPVDZ                             
 MODIFYING VBOLIB FOR GAMESS

 Molecular orbitals by HF method
 ===============================================================================
 MO#                       1         2         3         4         5         6
 E(a.u.)             -91.954   -11.333    -8.954    -6.635    -6.634    -6.631
 -------------------------------------------------------------------------------

   1  1  S     s     1.00003   0.00002  -0.00019  -0.00002   0.00000   0.00000
   2  1  S     s     0.00008   0.00011  -1.00445   0.00323   0.00000   0.00000
   3  1  S     s     0.00009   0.00021  -0.00213  -0.00140   0.00000   0.00000
   4  1  S     s    -0.00062  -0.00133   0.01415   0.00030   0.00000   0.00000
   5  1  S     x     0.00005   0.00000  -0.00397  -1.00005   0.00000   0.00000
   6  1  S     y     0.00000   0.00000   0.00000   0.00000  -1.00010   0.00000
   7  1  S     z     0.00000   0.00000   0.00000   0.00000   0.00000  -0.99982
   8  1  S     x     0.00001   0.00001  -0.00135  -0.00033   0.00000   0.00000
   9  1  S     y     0.00000   0.00000   0.00000   0.00000  -0.00027   0.00000
  10  1  S     z     0.00000   0.00000   0.00000   0.00000   0.00000   0.00193
  11  1  S     x    -0.00016  -0.00068   0.00326   0.00074   0.00000   0.00000
  12  1  S     y     0.00000   0.00000   0.00000   0.00000   0.00085   0.00000
  13  1  S     z     0.00000   0.00000   0.00000   0.00000   0.00000  -0.00008
  14  1  S    xx    -0.00001   0.00029   0.00004  -0.00025   0.00000   0.00000
  15  1  S    yy     0.00001  -0.00024   0.00004   0.00006   0.00000   0.00000
  16  1  S    zz     0.00000  -0.00004  -0.00008   0.00019   0.00000   0.00000
  17  1  S    xy     0.00000   0.00000   0.00000   0.00000   0.00004   0.00000
  18  1  S    xz     0.00000   0.00000   0.00000   0.00000   0.00000   0.00005
  19  1  S    yz     0.00000   0.00000   0.00000   0.00000   0.00000   0.00000
  20  1  S    xx     0.00000  -0.00004  -0.00039  -0.00067   0.00000   0.00000
  21  1  S    yy    -0.00000   0.00003  -0.00051   0.00040   0.00000   0.00000
  22  1  S    zz    -0.00000   0.00001   0.00091   0.00027   0.00000   0.00000
  23  1  S    xy     0.00000   0.00000   0.00000   0.00000  -0.00063   0.00000
  24  1  S    xz     0.00000   0.00000   0.00000   0.00000   0.00000  -0.00087
  25  1  S    yz     0.00000   0.00000   0.00000   0.00000   0.00000   0.00000
  26  2  H     s    -0.00002   0.00033   0.00022  -0.00013   0.00000  -0.00015
  27  2  H     s     0.00005  -0.00127  -0.00108  -0.00011   0.00000  -0.00009
  28  2  H     x     0.00002  -0.00023  -0.00011   0.00016   0.00000   0.00000
  29  2  H     y     0.00000   0.00000   0.00000   0.00000   0.00000   0.00000
  30  2  H     z    -0.00001  -0.00038   0.00023   0.00002   0.00000   0.00006
  31  3  H     s    -0.00002   0.00033   0.00022  -0.00013   0.00000   0.00015
  32  3  H     s     0.00005  -0.00127  -0.00108  -0.00011   0.00000   0.00009
  33  3  H     x     0.00002  -0.00023  -0.00011   0.00016   0.00000  -0.00000
  34  3  H     y     0.00000   0.00000   0.00000   0.00000   0.00000   0.00000
  35  3  H     z     0.00001   0.00038  -0.00023  -0.00002   0.00000   0.00006
  36  4  C     s    -0.00001  -1.00173   0.00047   0.00023   0.00000   0.00000
  37  4  C     s    -0.00003  -0.00324   0.00059  -0.00031   0.00000   0.00000
  38  4  C     s     0.00017   0.00662  -0.00308   0.00007   0.00000   0.00000
  39  4  C     x     0.00003  -0.00025  -0.00042   0.00053   0.00000   0.00000
  40  4  C     y     0.00000   0.00000   0.00000   0.00000  -0.00002   0.00000
  41  4  C     z     0.00000   0.00000   0.00000   0.00000   0.00000  -0.00002
  42  4  C     x    -0.00015  -0.00012   0.00291   0.00004   0.00000   0.00000
  43  4  C     y     0.00000   0.00000   0.00000   0.00000  -0.00013   0.00000
  44  4  C     z     0.00000   0.00000   0.00000   0.00000   0.00000   0.00023
  45  4  C    xx    -0.00005  -0.00023   0.00074  -0.00032   0.00000   0.00000
  46  4  C    yy     0.00001   0.00072  -0.00036   0.00001   0.00000   0.00000
  47  4  C    zz     0.00004  -0.00049  -0.00038   0.00032   0.00000   0.00000
  48  4  C    xy     0.00000   0.00000   0.00000   0.00000   0.00003   0.00000
  49  4  C    xz     0.00000   0.00000   0.00000   0.00000   0.00000   0.00020
  50  4  C    yz     0.00000   0.00000   0.00000   0.00000   0.00000   0.00000

 MO#                       7         8         9        10        11        12
 E(a.u.)              -1.043    -0.818    -0.644    -0.529    -0.400    -0.349
 -------------------------------------------------------------------------------

   1  1  S     s     0.00055   0.00018   0.00000   0.00366   0.00000   0.00000
   2  1  S     s     0.00956   0.00175   0.00000   0.02058   0.00000   0.00000
   3  1  S     s    -0.31743  -0.36077   0.00000  -0.16686   0.00000   0.00000
   4  1  S     s    -0.27051  -0.36734   0.00000  -0.38733   0.00000   0.00000
   5  1  S     x     0.01039   0.00152   0.00000  -0.00910   0.00000   0.00000
   6  1  S     y     0.00000   0.00000   0.00000   0.00000  -0.00875   0.00000
[...]
  10  1  S     z   0.00001   0.00000   0.00001   0.00001   0.00700   0.00001
  11  1  S     x  -0.00309  -0.00277  -0.02334  -0.00000  -0.00000   0.00746
  12  1  S     y   0.00000  -0.00000   0.00000  -0.00032   0.00000  -0.00000
  13  1  S     z   0.00001   0.00000   0.00001   0.00001   0.00497   0.00001
  14  1  S    xx   0.00034  -0.00308   0.00577  -0.00000  -0.00000   0.00031
  15  1  S    yy   0.00062   0.00058   0.00799  -0.00000  -0.00000  -0.00003
  16  1  S    zz   0.00078   0.00066   0.00897  -0.00000  -0.00000  -0.00054
  17  1  S    xy   0.00000  -0.00000   0.00000   0.00005  -0.00000  -0.00000
  18  1  S    xz   0.00000   0.00000   0.00000   0.00000   0.00021   0.00000
  19  1  S    yz  -0.00000  -0.00000  -0.00000  -0.00000  -0.00000   0.00000
  20  1  S    xx   0.00013  -0.00044   0.00148  -0.00000  -0.00000   0.00102
  21  1  S    yy   0.00018   0.00015   0.00143  -0.00000  -0.00000  -0.00007
  22  1  S    zz   0.00019   0.00017   0.00308  -0.00000  -0.00000  -0.00002
  23  1  S    xy   0.00000  -0.00000   0.00000   0.00076  -0.00000  -0.00000
  24  1  S    xz   0.00000   0.00000   0.00000   0.00000  -0.00090  -0.00000
  25  1  S    yz  -0.00000  -0.00000  -0.00000   0.00000   0.00000  -0.00000
  26  2  H     s  -0.00008  -0.01505  -0.00084  -0.00000   0.00063   0.00053
  27  2  H     s   0.00029  -0.00154   0.00200  -0.00000  -0.00030  -0.00048
  28  2  H     x  -0.00005   0.00079  -0.00033  -0.00000  -0.00006   0.00003
  29  2  H     y   0.00000  -0.00000   0.00000   0.00001  -0.00000  -0.00000
  30  2  H     z  -0.00002   0.00158   0.00000  -0.00000  -0.00003   0.00002
  31  3  H     s  -0.00008  -0.01505  -0.00084   0.00000  -0.00063   0.00053
  32  3  H     s   0.00029  -0.00154   0.00200   0.00000   0.00030  -0.00048
  33  3  H     x  -0.00005   0.00079  -0.00033   0.00000   0.00006   0.00003
  34  3  H     y   0.00000  -0.00000   0.00000   0.00001  -0.00000  -0.00000
  35  3  H     z   0.00002  -0.00158  -0.00000  -0.00000  -0.00003  -0.00002
  36  4  C     s   0.00003   1.00004   0.00053   0.00000  -0.00000  -0.00033
  37  4  C     s   0.00022  -0.02345   0.00338  -0.00000  -0.00000  -0.00293
  38  4  C     s  -0.00117  -0.02153  -0.00982  -0.00000  -0.00000   0.00221
  39  4  C     x  -0.00084  -0.00404  -0.00868   0.00000   0.00000   0.00526
  40  4  C     y   0.00000  -0.00000   0.00000   0.00052  -0.00000  -0.00000
  41  4  C     z   0.00000   0.00000   0.00000   0.00000   0.00169   0.00000
  42  4  C     x   0.00040  -0.00143   0.00316   0.00000   0.00000  -0.00022
  43  4  C     y   0.00000  -0.00000   0.00000   0.00053  -0.00000  -0.00000
  44  4  C     z  -0.00000   0.00000  -0.00000  -0.00000   0.00085  -0.00000
  45  4  C    xx   0.00035  -0.00277   0.00358   0.00000   0.00000  -0.00117
  46  4  C    yy  -0.00005  -0.00204  -0.00033  -0.00000  -0.00000   0.00012
  47  4  C    zz  -0.00027  -0.00236  -0.00186  -0.00000  -0.00000   0.00052
  48  4  C    xy  -0.00000   0.00000  -0.00000  -0.00007   0.00000   0.00000
  49  4  C    xz  -0.00000  -0.00000  -0.00000  -0.00000  -0.00007  -0.00000
  50  4  C    yz   0.00000  -0.00000   0.00000  -0.00000  -0.00000  -0.00000

 ===========================================================================
    Orbital#             7         8         9        10        11        12
      Group#             1         1         1         1         1         2
 ---------------------------------------------------------------------------
  AO# LABELS
   1  1  S     s  -0.02622   0.00001   0.00883   0.00121   0.00121   0.00000
   2  1  S     s  -0.21384   0.00001   0.05708   0.00868   0.00868   0.00000
   3  1  S     s  -0.47342   0.00000   0.14638   0.03176   0.03176   0.00000
   4  1  S     s  -0.58976   0.00000  -0.07684   0.00393   0.00393   0.00000
   5  1  S     x  -0.08849  -0.00001   0.01313   0.00138   0.00138   0.00000
   6  1  S     y   0.00001  -0.00001  -0.00000  -0.00000  -0.00000   0.00249
   7  1  S     z  -0.00001   0.00614   0.00000   0.00128  -0.00128   0.00000
   8  1  S     x   0.20781  -0.00000   0.37308   0.03765   0.03765  -0.00000
   9  1  S     y   0.00000  -0.00000  -0.00000   0.00000   0.00000   0.58309
  10  1  S     z   0.00000   0.55119  -0.00000  -0.01655   0.01655   0.00000
  11  1  S     x   0.14131  -0.00000   0.19170   0.02951   0.02951  -0.00000
  12  1  S     y   0.00000   0.00000  -0.00000   0.00000   0.00000   0.48031
  13  1  S     z   0.00000   0.56220  -0.00000  -0.05496   0.05496   0.00000
  14  1  S    xx   0.03019  -0.00000   0.09245  -0.00176  -0.00176   0.00000
  15  1  S    yy  -0.00036  -0.00000  -0.01557   0.00106   0.00106  -0.00000
  16  1  S    zz  -0.00658  -0.00000  -0.02159   0.00141   0.00141   0.00000
  17  1  S    xy   0.00000  -0.00000  -0.00000   0.00000   0.00000   0.03691
  18  1  S    xz   0.00000   0.00722  -0.00000   0.02085  -0.02085  -0.00000
  19  1  S    yz   0.00000  -0.00000   0.00000   0.00000  -0.00000   0.00000
  20  1  S    xx   0.00550  -0.00000   0.01742   0.00107   0.00107   0.00000
  21  1  S    yy  -0.00055  -0.00000  -0.00510   0.00006   0.00006  -0.00000
  22  1  S    zz  -0.00094  -0.00000  -0.00568  -0.00001  -0.00001   0.00000
  23  1  S    xy   0.00000  -0.00000  -0.00000   0.00000   0.00000   0.00544
  24  1  S    xz  -0.00000   0.00081  -0.00000   0.00343  -0.00343  -0.00000
  25  1  S    yz   0.00000  -0.00000   0.00000   0.00000  -0.00000   0.00000
  26  2  H     s  -0.00728  -0.03860  -0.03881   0.03888  -0.42884   0.00000
  27  2  H     s  -0.01749  -0.06244  -0.04016   0.04263  -0.11502  -0.00000
  28  2  H     x  -0.00004  -0.00154  -0.00755  -0.00294   0.01790  -0.00000
  29  2  H     y   0.00000   0.00000  -0.00000   0.00000   0.00000   0.00432
  30  2  H     z   0.00099  -0.00365   0.00255   0.00964   0.03232  -0.00000
  31  3  H     s  -0.00728   0.03860  -0.03881  -0.42884   0.03888   0.00000
  32  3  H     s  -0.01749   0.06244  -0.04016  -0.11502   0.04263  -0.00000
  33  3  H     x  -0.00004   0.00154  -0.00755   0.01790  -0.00294  -0.00000
  34  3  H     y   0.00000  -0.00000  -0.00000   0.00000   0.00000   0.00432
  35  3  H     z  -0.00099  -0.00365  -0.00255  -0.03232  -0.00964   0.00000
  36  4  C     s  -0.00002  -0.00000   0.02887  -0.03048  -0.03048   0.00000
  37  4  C     s   0.03139   0.00000   0.23365  -0.22669  -0.22669   0.00000
  38  4  C     s   0.07906  -0.00000   0.18650  -0.16708  -0.16708   0.00000
  39  4  C     x  -0.04055   0.00000  -0.35802  -0.17823  -0.17823  -0.00000
  40  4  C     y   0.00000  -0.00000  -0.00000   0.00000   0.00000   0.06623
  41  4  C     z   0.00000   0.01951  -0.00000   0.31497  -0.31497  -0.00000
  42  4  C     x  -0.04880   0.00000  -0.15965  -0.07482  -0.07482  -0.00000
  43  4  C     y   0.00000  -0.00000  -0.00000   0.00000   0.00000   0.06314
  44  4  C     z  -0.00000  -0.00220  -0.00000   0.12897  -0.12897  -0.00000
  45  4  C    xx  -0.00647   0.00000   0.03599   0.00538   0.00538   0.00000
  46  4  C    yy   0.00107  -0.00000  -0.00128   0.00426   0.00426   0.00000
  47  4  C    zz   0.00561  -0.00000  -0.01212  -0.00705  -0.00705  -0.00000
  48  4  C    xy  -0.00000   0.00000   0.00000  -0.00000  -0.00000  -0.01665
  49  4  C    xz  -0.00000  -0.03620   0.00000   0.01576  -0.01576  -0.00000
  50  4  C    yz  -0.00000  -0.00000   0.00000  -0.00000   0.00000   0.00000

 ===========================================================================
    Orbital#            13
      Group#             2
 ---------------------------------------------------------------------------
  AO# LABELS
   1  1  S     s   0.00000
   2  1  S     s   0.00000
   3  1  S     s   0.00000
   4  1  S     s   0.00000
   5  1  S     x   0.00000
   6  1  S     y  -0.01652
   7  1  S     z  -0.00000
   8  1  S     x   0.00000
   9  1  S     y   0.12762
  10  1  S     z   0.00000
  11  1  S     x   0.00000
  12  1  S     y   0.13651
  13  1  S     z   0.00000
  14  1  S    xx   0.00000
  15  1  S    yy   0.00000
  16  1  S    zz  -0.00000
  17  1  S    xy   0.06297
  18  1  S    xz   0.00000
  19  1  S    yz   0.00000
  20  1  S    xx  -0.00000
  21  1  S    yy   0.00000
  22  1  S    zz  -0.00000
  23  1  S    xy   0.01034
  24  1  S    xz   0.00000
  25  1  S    yz   0.00000
  26  2  H     s   0.00000
  27  2  H     s   0.00000
  28  2  H     x  -0.00000
  29  2  H     y   0.01538
  30  2  H     z  -0.00000
  31  3  H     s   0.00000
  32  3  H     s   0.00000
  33  3  H     x  -0.00000
  34  3  H     y   0.01538
  35  3  H     z   0.00000
  36  4  C     s   0.00000
  37  4  C     s   0.00000
  38  4  C     s  -0.00000
  39  4  C     x   0.00000
  40  4  C     y   0.57216
  41  4  C     z  -0.00000
  42  4  C     x   0.00000
  43  4  C     y   0.43461
  44  4  C     z   0.00000
  45  4  C    xx   0.00000
  46  4  C    yy  -0.00000
  47  4  C    zz   0.00000
  48  4  C    xy  -0.03913
  49  4  C    xz  -0.00000
  50  4  C    yz  -0.00000


 CALCULATION OF POSITION AND EXTENT OF VB ORBITALS

 DEFAULT CENTROIDS AND EXTENTS.

 MOLECULAR GEOMETRY ABOUT CENTER OF MASS

  Atom#   ATOMIC NO.     X        Y        Z
    1        16       -0.5366   0.0000   0.0000
    2         1        1.7034   0.0000   0.9230
    3         1        1.7034   0.0000  -0.9230
    4         6        1.1434   0.0000   0.0000

 CENTROIDS OF CHARGE FOR EACH VB GROUP & DISTANCES FROM 4 ATOMS

                                                  DISTANCES FROM ATOMS
 Orbital#   Group#       X        Y        Z        1        2        3        4
   12         2       -0.4278   0.0000   0.0000   0.1088   2.3225   2.3225   1.5712
   13         2        0.9254   0.0000   0.0000   1.4619   1.2072   1.2072   0.2181

 EXTENT OF ORBITAL MEASURED BY (<R**2>)

 Orbital#   Group#     <X**2>   <Y**2>   <Z**2>   <R**2> Sqrt<R**2>

   12         2        0.3444   0.8058   0.2691   1.4192   1.1913
   13         2        0.4062   0.6883   0.2365   1.3310   1.1537

 WORDS OF DYNAMIC MEMORY USED IN VB2000 CODE ONLY:      911285
 NOTE THAT THIS IS IN ADDITION TO MEMORY USED BY GAMESS
 PRINTED NEAR END OF OUTPUT. ADD THE TWO AMOUNTS TO GIVE
 THE TOTAL MEMORY USED BY THE JOB

 STATISTICS OF CPU TIMES (SECONDS)
 CPU TIME FOR INITIALIZATION        0.240
 CPU TIME FOR MACROITERATION        4.830
 TOTAL CPU TIME                     5.070

 STEP CPU TIME =     5.13 TOTAL CPU TIME =        5.4 (    0.1 MIN)
 TOTAL WALL CLOCK TIME=        5.5 SECONDS, CPU UTILIZATION IS  99.27%

 **************************************************************
 *                                                            *
 *                  ENDING GAMESS(US) VB2000                  *
 *                                                            *
 *  Properties for individual molecular orbitals are correct  *
 *   only for VB modified orbitals in a Hartree-Fock group.   *
 *                                                            *
 **************************************************************

     ----------------------------------
     PROPERTIES FOR THE VB WAVEFUNCTION
     ----------------------------------

          -----------------
          ENERGY COMPONENTS
          -----------------

         WAVEFUNCTION NORMALIZATION =       1.0000000000

                ONE ELECTRON ENERGY =    -688.0121581964
                TWO ELECTRON ENERGY =     208.0555726887
           NUCLEAR REPULSION ENERGY =      43.3968601281
                                      ------------------
                       TOTAL ENERGY =    -436.5597253797

 ELECTRON-ELECTRON POTENTIAL ENERGY =     208.0555726887
  NUCLEUS-ELECTRON POTENTIAL ENERGY =   -1124.3964563148
   NUCLEUS-NUCLEUS POTENTIAL ENERGY =      43.3968601281
                                      ------------------
             TOTAL POTENTIAL ENERGY =    -872.9440234981
               TOTAL KINETIC ENERGY =     436.3842981184
                 VIRIAL RATIO (V/T) =       2.0004020018

          ---------------------------------------
          MULLIKEN AND LOWDIN POPULATION ANALYSES
          ---------------------------------------

     ATOMIC MULLIKEN POPULATION IN EACH MOLECULAR ORBITAL

                      1          2          3          4          5

                  2.000000   2.000000   2.000000   2.000000   2.000000

    1             1.999986  -0.000494   1.999234   1.999966   2.000026
    2             0.000000  -0.001056   0.000018   0.000000   0.000004
    3             0.000000  -0.001056   0.000018   0.000000   0.000004
    4             0.000013   2.002605   0.000731   0.000034  -0.000034

                      6          7          8          9         10

                  2.000000   2.000000   2.000000   2.000000   2.000000

    1             2.000152   2.060387   1.989437   0.922412  -0.015807
    2             0.000001   0.003231  -0.005329  -0.014369  -0.016176
    3             0.000001   0.003231  -0.005329  -0.014369   0.940521
    4            -0.000155  -0.066850   0.021220   1.106326   1.091462

                     11         12

                  2.000000   2.000000

    1            -0.015807   1.860192
    2             0.940521   0.049599
    3            -0.016176   0.049599
    4             1.091462   0.040610

               ----- POPULATIONS IN EACH AO -----
                             MULLIKEN      LOWDIN
              1  S  1  S      2.00007     1.99463
              2  S  1  S      2.01928     1.27153
              3  S  1  S      0.90492     0.74715
              4  S  1  S      0.96716     0.51923
              5  S  1  X      2.00011     1.98111
              6  S  1  Y      2.00025     1.98683
              7  S  1  Z      1.99964     1.98625
              8  S  1  X      0.68630     0.63917
              9  S  1  Y      0.56353     0.54168
             10  S  1  Z      0.99219     0.99421
             11  S  1  X      0.34609     0.47379
             12  S  1  Y      0.53348     0.55393
             13  S  1  Z      0.97432     0.93534
             14  S  1 XX      0.01242     0.25581
             15  S  1 YY      0.03147     0.23129
             16  S  1 ZZ      0.02011     0.23719
             17  S  1 XY      0.00947     0.02231
             18  S  1 XZ      0.00000     0.01383
             19  S  1 YZ      0.00202     0.00000
             20  S  1 XX      0.00046     0.18234
             21  S  1 YY      0.00121     0.18336
             22  S  1 ZZ      0.00053     0.18231
             23  S  1 XY      0.00018     0.00053
             24  S  1 XZ      0.00000     0.00015
             25  S  1 YZ     -0.00780     0.00000
             26  H  2  S      0.74891     0.60020
             27  H  2  S      0.13000     0.24110
             28  H  2  X      0.00847     0.02292
             29  H  2  Y      0.00418     0.01528
             30  H  2  Z      0.01947     0.03797
             31  H  3  S      0.74891     0.60020
             32  H  3  S      0.13000     0.24110
             33  H  3  X      0.00847     0.02292
             34  H  3  Y      0.00418     0.01528
             35  H  3  Z      0.01947     0.03797
             36  C  4  S      2.00236     1.88648
             37  C  4  S      0.68347     0.49937
             38  C  4  S      0.52379     0.32736
             39  C  4  X      0.70154     0.63422
             40  C  4  Y      0.45431     0.41725
             41  C  4  Z      0.72954     0.65543
             42  C  4  X      0.25374     0.37899
             43  C  4  Y      0.40978     0.42944
             44  C  4  Z      0.29234     0.43606
             45  C  4 XX      0.00883     0.19128
             46  C  4 YY      0.00712     0.09845
             47  C  4 ZZ      0.00963     0.18151
             48  C  4 XY      0.03009     0.01746
             49  C  4 XZ      0.00000     0.07781
             50  C  4 YZ      0.01398     0.00000

          ----- MULLIKEN ATOMIC OVERLAP POPULATIONS -----
          (OFF-DIAGONAL ELEMENTS NEED TO BE MULTIPLIED BY 2)

             1           2           3           4

    1   15.6988309
    2   -0.0401096   0.5734278
    3   -0.0401096  -0.0329680   0.5734278
    4    0.4388279   0.4106770   0.4106770   4.8603241

          TOTAL MULLIKEN AND LOWDIN ATOMIC POPULATIONS
       ATOM         MULL.POP.    CHARGE          LOW.POP.     CHARGE
    1 S            16.057440   -0.057440        15.933942    0.066058
    2 H             0.911027    0.088973         0.917471    0.082529
    3 H             0.911027    0.088973         0.917471    0.082529
    4 C             6.120506   -0.120506         6.231116   -0.231116

          MULLIKEN SPHERICAL HARMONIC POPULATIONS
       ATOM           S       P       D      F      G      H      I    TOTAL
    1 S             5.89   10.10    0.08   0.00   0.00   0.00   0.00   16.06
    2 H             0.88    0.03    0.00   0.00   0.00   0.00   0.00    0.91
    3 H             0.88    0.03    0.00   0.00   0.00   0.00   0.00    0.91
    4 C             3.22    2.84    0.06   0.00   0.00   0.00   0.00    6.12

          -------------------------------
          BOND ORDER AND VALENCE ANALYSIS     BOND ORDER THRESHOLD=0.050
          -------------------------------

                   BOND                       BOND                       BOND
  ATOM PAIR DIST  ORDER      ATOM PAIR DIST  ORDER      ATOM PAIR DIST  ORDER
    1   4  1.680  1.732        2   4  1.080  0.971        3   4  1.080  0.971

                       TOTAL       BONDED        FREE
      ATOM            VALENCE     VALENCE     VALENCE
    1 S                 1.998       1.740       0.258
    2 H                 0.967       0.965       0.001
    3 H                 0.967       0.965       0.001
    4 C                 3.920       3.673       0.247

          ---------------------
          ELECTROSTATIC MOMENTS
          ---------------------

 POINT   1           X           Y           Z (BOHR)    CHARGE
                 0.786235    0.000000    0.000000       -0.00 (A.U.)
         DX          DY          DZ         /D/  (DEBYE)
     1.768523    0.000002   -0.000000    1.768523
 ...... END OF PROPERTY EVALUATION ......
 STEP CPU TIME =     0.00 TOTAL CPU TIME =        5.4 (    0.1 MIN)
 TOTAL WALL CLOCK TIME=        5.5 SECONDS, CPU UTILIZATION IS  99.27%
               580000  WORDS OF DYNAMIC MEMORY USED
 EXECUTION OF GAMESS TERMINATED NORMALLY Mon Oct 14 07:29:30 2013
 DDI: 263624 bytes (0.3 MB / 0 MWords) used by master data server.

 ----------------------------------------
 CPU timing information for all processes
 ========================================
 0: 5.364 + 0.80 = 5.444
 ----------------------------------------
 ddikick.x: exited gracefully.
unset echo
----- accounting info -----
Files used on the master node titch-64 were:
-rw-r--r-- 1 brian brian    1377 Oct 14 07:29 /scr/brian/exam-vb15.F05
-rw-rw-r-- 1 brian brian 4140368 Oct 14 07:29 /scr/brian/exam-vb15.F08
-rw-rw-r-- 1 brian brian 1505120 Oct 14 07:29 /scr/brian/exam-vb15.F10
-rw-rw-r-- 1 brian brian      32 Oct 14 07:29 /scr/brian/exam-vb15.TEMP02
-rw-rw-r-- 1 brian brian      32 Oct 14 07:29 /scr/brian/exam-vb15.TEMP03
-rw-rw-r-- 1 brian brian      56 Oct 14 07:29 /scr/brian/exam-vb15.TEMP04
-rw-rw-r-- 1 brian brian   15093 Oct 14 07:29 /scr/brian/exam-vb15.TEMP-MOD
-rw-rw-r-- 1 brian brian    1377 Oct 14 07:29 /scr/brian/exam-vb15.V80
-rw-rw-r-- 1 brian brian       0 Oct 14 07:29 /scr/brian/exam-vb15.V82
-rw-rw-r-- 1 brian brian       0 Oct 14 07:29 /scr/brian/exam-vb15.V83
-rw-rw-r-- 1 brian brian   21272 Oct 14 07:29 /scr/brian/exam-vb15.V84
-rw-rw-r-- 1 brian brian 3646080 Oct 14 07:29 /scr/brian/exam-vb15.V85
-rw-rw-r-- 1 brian brian  196592 Oct 14 07:29 /scr/brian/exam-vb15.V86
-rw-rw-r-- 1 brian brian  196592 Oct 14 07:29 /scr/brian/exam-vb15.V87
-rw-rw-r-- 1 brian brian      56 Oct 14 07:29 /scr/brian/exam-vb15.V88
-rw-rw-r-- 1 brian brian       0 Oct 14 07:29 /scr/brian/exam-vb15.V89
ls: No match.
ls: No match.
ls: No match.
Mon Oct 14 07:29:33 EST 2013
0.076u 0.012s 0:08.63 0.9%	0+0k 8+24io 0pf+0w
