----- GAMESS execution script 'rungms' -----
This job is running on host titch-64
under operating system Linux at Mon Oct 14 07:29:43 EST 2013
Available scratch disk space (Kbyte units) at beginning of the job is
Filesystem     1K-blocks      Used Available Use% Mounted on
/dev/sda1      945022356 138266628 758751376  16% /
GAMESS temporary binary files will be written to /scr/brian
GAMESS supplementary output files will be written to /home/brian/scr
Copying input file exam-vb19.inp to your run's scratch directory...
cp tests/exam-vb19.inp /scr/brian/exam-vb19.F05
unset echo
/home/brian/qchem/gamess/ddikick.x /home/brian/qchem/gamess/gamess.01.x exam-vb19 -ddi 1 1 titch-64 -scr /scr/brian

 Distributed Data Interface kickoff program.
 Initiating 1 compute processes on 1 nodes to run the following command:
 /home/brian/qchem/gamess/gamess.01.x exam-vb19 

          ******************************************************
          *         GAMESS VERSION =  1 MAY 2013 (R1)          *
          *             FROM IOWA STATE UNIVERSITY             *
          * M.W.SCHMIDT, K.K.BALDRIDGE, J.A.BOATZ, S.T.ELBERT, *
          *   M.S.GORDON, J.H.JENSEN, S.KOSEKI, N.MATSUNAGA,   *
          *          K.A.NGUYEN, S.J.SU, T.L.WINDUS,           *
          *       TOGETHER WITH M.DUPUIS, J.A.MONTGOMERY       *
          *         J.COMPUT.CHEM.  14, 1347-1363(1993)        *
          **************** 64 BIT LINUX VERSION ****************

  SINCE 1993, STUDENTS AND POSTDOCS WORKING AT IOWA STATE UNIVERSITY
  AND ALSO IN THEIR VARIOUS JOBS AFTER LEAVING ISU HAVE MADE IMPORTANT
  CONTRIBUTIONS TO THE CODE:
     IVANA ADAMOVIC, CHRISTINE AIKENS, YURI ALEXEEV, POOJA ARORA,
     ANDREY ASADCHEV, ROB BELL, PRADIPTA BANDYOPADHYAY, JONATHAN BENTZ,
     BRETT BODE, GALINA CHABAN, WEI CHEN, CHEOL HO CHOI, PAUL DAY,
     ALBERT DEFUSCO, TIM DUDLEY, DMITRI FEDOROV, GRAHAM FLETCHER,
     MARK FREITAG, KURT GLAESEMANN, DAN KEMP, GRANT MERRILL,
     NORIYUKI MINEZAWA, JONATHAN MULLIN, TAKESHI NAGATA,
     SEAN NEDD, HEATHER NETZLOFF, BOSILJKA NJEGIC, RYAN OLSON, MIKE PAK,
     JIM SHOEMAKER, LYUDMILA SLIPCHENKO, SAROM SOK, JIE SONG,
     TETSUYA TAKETSUGU, SIMON WEBB, SOOHAENG YOO, FEDERICO ZAHARIEV

  ADDITIONAL CODE HAS BEEN PROVIDED BY COLLABORATORS IN OTHER GROUPS:
     IOWA STATE UNIVERSITY:
          JOE IVANIC, LAIMUTIS BYTAUTAS, KLAUS RUEDENBERG
     UNIVERSITY OF TOKYO: KIMIHIKO HIRAO, TAKAHITO NAKAJIMA,
          TAKAO TSUNEDA, MUNEAKI KAMIYA, SUSUMU YANAGISAWA,
          KIYOSHI YAGI, MAHITO CHIBA, SEIKEN TOKURA, NAOAKI KAWAKAMI
     UNIVERSITY OF AARHUS: FRANK JENSEN
     UNIVERSITY OF IOWA: VISVALDAS KAIRYS, HUI LI
     NATIONAL INST. OF STANDARDS AND TECHNOLOGY: WALT STEVENS, DAVID GARMER
     UNIVERSITY OF PISA: BENEDETTA MENNUCCI, JACOPO TOMASI
     UNIVERSITY OF MEMPHIS: HENRY KURTZ, PRAKASHAN KORAMBATH
     UNIVERSITY OF ALBERTA: TOBY ZENG, MARIUSZ KLOBUKOWSKI
     UNIVERSITY OF NEW ENGLAND: MARK SPACKMAN
     MIE UNIVERSITY: HIROAKI UMEDA
     MICHIGAN STATE UNIVERSITY:
          KAROL KOWALSKI, MARTA WLOCH, JEFFREY GOUR, JESSE LUTZ,
          WEI LI, PIOTR PIECUCH
     UNIVERSITY OF SILESIA: MONIKA MUSIAL, STANISLAW KUCHARSKI
     FACULTES UNIVERSITAIRES NOTRE-DAME DE LA PAIX:
          OLIVIER QUINET, BENOIT CHAMPAGNE
     UNIVERSITY OF CALIFORNIA - SANTA BARBARA: BERNARD KIRTMAN
     INSTITUTE FOR MOLECULAR SCIENCE:
          KAZUYA ISHIMURA, MICHIO KATOUDA, AND SHIGERU NAGASE
     UNIVERSITY OF NOTRE DAME: DAN CHIPMAN
     KYUSHU UNIVERSITY:
          HARUYUKI NAKANO,
          FENG LONG GU, JACEK KORCHOWIEC, MARCIN MAKOWSKI, AND YURIKO AOKI,
          HIROTOSHI MORI AND EISAKU MIYOSHI
     PENNSYLVANIA STATE UNIVERSITY:
          TZVETELIN IORDANOV, CHET SWALINA, JONATHAN SKONE,
          SHARON HAMMES-SCHIFFER
     WASEDA UNIVERSITY:
          MASATO KOBAYASHI, TOMOKO AKAMA, TSUGUKI TOUMA,
          TAKESHI YOSHIKAWA, YASUHIRO IKABATA, HIROMI NAKAI
     NANJING UNIVERSITY: SHUHUA LI
     UNIVERSITY OF NEBRASKA:
          PEIFENG SU, DEJUN SI, NANDUN THELLAMUREGE, YALI WANG, HUI LI
     UNIVERSITY OF ZURICH:
          ROBERTO PEVERATI, KIM BALDRIDGE
     N. COPERNICUS UNIVERSITY AND JACKSON STATE UNIVERSITY:
          MARIA BARYSZ

 EXECUTION OF GAMESS BEGUN Mon Oct 14 07:29:43 2013

            ECHO OF THE FIRST FEW INPUT CARDS -
 INPUT CARD>! GAMESS/VB2000 Test 19.                                                        
 INPUT CARD>! This run demonstates that the Gamess/VB code can run effective core           
 INPUT CARD>! potential calculations, in this case with the Heys-Wadt potential.            
 INPUT CARD>!                                                                               
 INPUT CARD>! Note that the data has been entered with no symmetry.                         
 INPUT CARD>!                                                                               
 INPUT CARD>! The final RHF energy is:=                                                     
 INPUT CARD>!                                                                               
 INPUT CARD>! RHF ENERGY IS -10.1459494658 AFTER   9 ITERATIONS                             
 INPUT CARD>!                                                                               
 INPUT CARD>! The VB final energy is:-                                                      
 INPUT CARD>!                                                                               
 INPUT CARD>!  ENERGY AND DIFF OF MACROITER    8 =    -10.18331270     -0.00000007          
 INPUT CARD>!                                                                               
 INPUT CARD>! and the VB and HF dipole moments are 1.2968 and 1.3083 respectively.          
 INPUT CARD>!                                                                               
 INPUT CARD> $CONTRL SCFTYP=RHF COORD=UNIQUE VBTYP=VB2000 ECP=HW $END                       
 INPUT CARD> $SYSTEM TIMLIM=20 MEMORY=2000000 $END                                          
 INPUT CARD> $BASIS GBASIS=HW $END                                                          
 INPUT CARD> $GUESS  GUESS=HUCKEL $END                                                      
 INPUT CARD> $DATA                                                                          
 INPUT CARD>Selenium dihydride - HW                                                         
 INPUT CARD>C1                                                                              
 INPUT CARD> SELENIUM   34.0   0.0000000000   0.0000000000  -0.2752608204                   
 INPUT CARD> HYDROGEN    1.0   0.0000000000  -1.0776417007   0.7241659339                   
 INPUT CARD> HYDROGEN    1.0   0.0000000000   1.0776417007   0.7241659339                   
 INPUT CARD> $END                                                                           
 INPUT CARD> $VB2000                                                                        
 INPUT CARD>#! VB(4)/Gen PRINTALL                                                           
 INPUT CARD>                                                                                
 INPUT CARD>Selenium dihydride - HW                                                         
 INPUT CARD>                                                                                
 INPUT CARD> $END                                                                           
 INPUT CARD>                                                                                
    2000000 WORDS OF MEMORY AVAILABLE

     BASIS OPTIONS
     -------------
     GBASIS=HW           IGAUSS=       0      POLAR=NONE    
     NDFUNC=       0     NFFUNC=       0     DIFFSP=       F
     NPFUNC=       0      DIFFS=       F     BASNAM=        


     RUN TITLE
     ---------
 Selenium dihydride - HW                                                         

 THE POINT GROUP OF THE MOLECULE IS C1      
 THE ORDER OF THE PRINCIPAL AXIS IS     0

 ATOM      ATOMIC                      COORDINATES (BOHR)
           CHARGE         X                   Y                   Z
 SELENIUM   34.0     0.0000000000        0.0000000000       -0.5201675257
 HYDROGEN    1.0     0.0000000000       -2.0364475273        1.3684751847
 HYDROGEN    1.0     0.0000000000        2.0364475273        1.3684751847

          INTERNUCLEAR DISTANCES (ANGS.)
          ------------------------------

                1 SELE       2 HYDR       3 HYDR  

   1 SELE    0.0000000    1.4697501 *  1.4697501 *
   2 HYDR    1.4697501 *  0.0000000    2.1552834 *
   3 HYDR    1.4697501 *  2.1552834 *  0.0000000  

  * ... LESS THAN  3.000


     ATOMIC BASIS SET
     ----------------
 THE CONTRACTED PRIMITIVE FUNCTIONS HAVE BEEN UNNORMALIZED
 THE CONTRACTED BASIS FUNCTIONS ARE NOW NORMALIZED TO UNITY

  SHELL TYPE  PRIMITIVE        EXPONENT          CONTRACTION COEFFICIENT(S)

 SELENIUM  

      1   S       1             1.0330000   -3.322409508517
      1   S       2             0.6521000    3.600346237144

      2   S       3             0.1660000    1.000000000000

      3   P       4             2.3660000   -0.118552157760
      3   P       5             0.3833000    1.041431993909

      4   P       6             0.1186000    1.000000000000

 HYDROGEN  

      5   S       7             4.5018000    0.156284978695
      5   S       8             0.6814440    0.904690876670

      6   S       9             0.1513980    1.000000000000

 HYDROGEN  

      7   S      10             4.5018000    0.156284978695
      7   S      11             0.6814440    0.904690876670

      8   S      12             0.1513980    1.000000000000

 TOTAL NUMBER OF BASIS SET SHELLS             =    8
 NUMBER OF CARTESIAN GAUSSIAN BASIS FUNCTIONS =   12
 NUMBER OF ELECTRONS                          =   36
 CHARGE OF MOLECULE                           =    0
 SPIN MULTIPLICITY                            =    1
 NUMBER OF OCCUPIED ORBITALS (ALPHA)          =   18
 NUMBER OF OCCUPIED ORBITALS (BETA )          =   18
 TOTAL NUMBER OF ATOMS                        =    3
 THE NUCLEAR REPULSION ENERGY IS       24.7286346555
 NOTE THIS RUN IS USING CORE POTENTIALS, AND THE NUMBER OF ELECTRONS,
 OCCUPIED ORBITALS, AND NUCLEAR REPULSION ENERGY WILL BE ADJUSTED BELOW
 AFTER REMOVAL OF THE CORE CHARGES.

     $CONTRL OPTIONS
     ---------------
 SCFTYP=RHF          RUNTYP=ENERGY       EXETYP=RUN     
 MPLEVL=       0     CITYP =NONE         CCTYP =NONE         VBTYP =VB2000  
 DFTTYP=NONE         TDDFT =NONE    
 MULT  =       1     ICHARG=       0     NZVAR =       0     COORD =UNIQUE  
 PP    =HW           RELWFN=NONE         LOCAL =NONE         NUMGRD=       F
 ISPHER=      -1     NOSYM =       0     MAXIT =      30     UNITS =ANGS    
 PLTORB=       F     MOLPLT=       F     AIMPAC=       F     FRIEND=        
 NPRINT=       7     IREST =       0     GEOM  =INPUT   
 NORMF =       0     NORMP =       0     ITOL  =      20     ICUT  =       9
 INTTYP=BEST         GRDTYP=BEST         QMTTOL= 1.0E-06

     $SYSTEM OPTIONS
     ---------------
  REPLICATED MEMORY=     2000000 WORDS (ON EVERY NODE).
 DISTRIBUTED MEMDDI=           0 MILLION WORDS IN AGGREGATE,
 MEMDDI DISTRIBUTED OVER   1 PROCESSORS IS           0 WORDS/PROCESSOR.
 TOTAL MEMORY REQUESTED ON EACH PROCESSOR=     2000000 WORDS.
 TIMLIM=          20.00 MINUTES, OR       0.0 DAYS.
 PARALL= F  BALTYP=  DLB     KDIAG=    0  COREFL= F
 MXSEQ2=     300 MXSEQ3=     150

          --------------
          ECP POTENTIALS
          --------------

 PARAMETERS FOR "HW    34" ON ATOM    1 WITH ZCORE  28 AND LMAX  3 ARE
 FOR L= 3      COEFF    N           ZETA
    1      -28.00000    1      433.19313
    2     -214.38418    2       83.89522
    3      -65.69188    2       18.58391
    4      -24.61539    2        5.39553
    5       -2.44815    2        1.74743
 FOR L= 0      COEFF    N           ZETA
    1        3.00000    0      202.89862
    2       62.02954    1       78.38205
    3      258.85560    2       35.07530
    4      118.78002    2       10.87695
    5       38.23553    2        2.80059
 FOR L= 1      COEFF    N           ZETA
    1        5.00000    0       44.30119
    2       24.79735    1       20.38742
    3       63.75756    2       23.18899
    4       79.05128    2        7.97777
    5       22.95202    2        2.29881
 FOR L= 2      COEFF    N           ZETA
    1        3.00000    0       73.36283
    2       22.47059    1       48.38356
    3      140.54929    2       25.62972
    4       63.57818    2        7.17058
    5        7.07536    2        1.36395

 THE ECP RUN REMOVES   28 CORE ELECTRONS, AND THE SAME NUMBER OF PROTONS.
 NUMBER OF ELECTRONS KEPT IN THE CALCULATION IS =    8
 NUMBER OF OCCUPIED ORBITALS (ALPHA) KEPT IS    =    4
 NUMBER OF OCCUPIED ORBITALS (BETA ) KEPT IS    =    4
 THE ADJUSTED NUCLEAR REPULSION ENERGY=        4.5660742565
          ECP ANGULAR INTS.........     0.00 SECONDS

          ----------------
          PROPERTIES INPUT
          ----------------

     MOMENTS            FIELD           POTENTIAL          DENSITY
 IEMOM =       1   IEFLD =       0   IEPOT =       0   IEDEN =       0
 WHERE =COMASS     WHERE =NUCLEI     WHERE =NUCLEI     WHERE =NUCLEI  
 OUTPUT=BOTH       OUTPUT=BOTH       OUTPUT=BOTH       OUTPUT=BOTH    
 IEMINT=       0   IEFINT=       0                     IEDINT=       0
                                                       MORB  =       0
          EXTRAPOLATION IN EFFECT
          SOSCF IN EFFECT
 ORBITAL PRINTING OPTION: NPREO=     1    12     2     1

     -------------------------------
     INTEGRAL TRANSFORMATION OPTIONS
     -------------------------------
     NWORD  =            0
     CUTOFF = 1.0E-09     MPTRAN =       0
     DIRTRF =       F     AOINTS =DUP     

          ----------------------
          INTEGRAL INPUT OPTIONS
          ----------------------
 NOPK  =       1 NORDER=       0 SCHWRZ=       F

     ------------------------------------------
     THE POINT GROUP IS C1 , NAXIS= 0, ORDER= 1
     ------------------------------------------

     DIMENSIONS OF THE SYMMETRY SUBSPACES ARE
 A   =   12

 ..... DONE SETTING UP THE RUN .....
 STEP CPU TIME =     0.00 TOTAL CPU TIME =        0.0 (    0.0 MIN)
 TOTAL WALL CLOCK TIME=        0.0 SECONDS, CPU UTILIZATION IS   0.00%

          ********************
          1 ELECTRON INTEGRALS
          ********************
 TIME TO DO ORDINARY INTEGRALS=      0.00
 TIME TO DO      ECP INTEGRALS=      0.00
 ...... END OF ONE-ELECTRON INTEGRALS ......
 STEP CPU TIME =     0.00 TOTAL CPU TIME =        0.0 (    0.0 MIN)
 TOTAL WALL CLOCK TIME=        0.0 SECONDS, CPU UTILIZATION IS   0.00%

          -------------
          GUESS OPTIONS
          -------------
          GUESS =HUCKEL            NORB  =       0          NORDER=       0
          MIX   =       F          PRTMO =       F          PUNMO =       F
          TOLZ  = 1.0E-08          TOLE  = 1.0E-05
          SYMDEN=       F          PURIFY=       F

 INITIAL GUESS ORBITALS GENERATED BY HUCKEL   ROUTINE.
 HUCKEL GUESS REQUIRES      3276 WORDS.

 SYMMETRIES FOR INITIAL GUESS ORBITALS FOLLOW.   BOTH SET(S).
     4 ORBITALS ARE OCCUPIED (    0 CORE ORBITALS).
     1=A        2=A        3=A        4=A        5=A        6=A        7=A   
     8=A        9=A       10=A       11=A       12=A   
 ...... END OF INITIAL ORBITAL SELECTION ......
 STEP CPU TIME =     0.00 TOTAL CPU TIME =        0.0 (    0.0 MIN)
 TOTAL WALL CLOCK TIME=        0.0 SECONDS, CPU UTILIZATION IS   0.00%

                    ----------------------
                    AO INTEGRAL TECHNOLOGY
                    ----------------------
     S,P,L SHELL ROTATED AXIS INTEGRALS, REPROGRAMMED BY
        KAZUYA ISHIMURA (IMS) AND JOSE SIERRA (SYNSTAR).
     S,P,D,L SHELL ROTATED AXIS INTEGRALS PROGRAMMED BY
        KAZUYA ISHIMURA (INSTITUTE FOR MOLECULAR SCIENCE).
     S,P,D,F,G SHELL TO TOTAL QUARTET ANGULAR MOMENTUM SUM 5,
        ERIC PROGRAM BY GRAHAM FLETCHER (ELORET AND NASA ADVANCED
        SUPERCOMPUTING DIVISION, AMES RESEARCH CENTER).
     S,P,D,F,G,L SHELL GENERAL RYS QUADRATURE PROGRAMMED BY
        MICHEL DUPUIS (PACIFIC NORTHWEST NATIONAL LABORATORY).

          --------------------
          2 ELECTRON INTEGRALS
          --------------------

 THE -PK- OPTION IS OFF, THE INTEGRALS ARE NOT IN SUPERMATRIX FORM.
 STORING   15000 INTEGRALS/RECORD ON DISK, USING 12 BYTES/INTEGRAL.
 TWO ELECTRON INTEGRAL EVALUATION REQUIRES   89392 WORDS OF MEMORY.
 II,JST,KST,LST =  1  1  1  1 NREC =         1 INTLOC =    1
 II,JST,KST,LST =  2  1  1  1 NREC =         1 INTLOC =    2
 II,JST,KST,LST =  3  1  1  1 NREC =         1 INTLOC =    7
 II,JST,KST,LST =  4  1  1  1 NREC =         1 INTLOC =   34
 II,JST,KST,LST =  5  1  1  1 NREC =         1 INTLOC =  139
 II,JST,KST,LST =  6  1  1  1 NREC =         1 INTLOC =  362
 II,JST,KST,LST =  7  1  1  1 NREC =         1 INTLOC =  677
 II,JST,KST,LST =  8  1  1  1 NREC =         1 INTLOC = 1100
 TOTAL NUMBER OF NONZERO TWO-ELECTRON INTEGRALS =                1665
          1 INTEGRAL RECORDS WERE STORED ON DISK FILE  8.
  ...... END OF TWO-ELECTRON INTEGRALS .....
 STEP CPU TIME =     0.02 TOTAL CPU TIME =        0.0 (    0.0 MIN)
 TOTAL WALL CLOCK TIME=        0.0 SECONDS, CPU UTILIZATION IS  66.67%

          --------------------------
                 RHF SCF CALCULATION
          --------------------------

     NUCLEAR ENERGY =         4.5660742565
     MAXIT =   30     NPUNCH=    2
     EXTRAP=T  DAMP=F  SHIFT=F  RSTRCT=F  DIIS=F  DEM=F  SOSCF=T
     DENSITY MATRIX CONV=  1.00E-05
     SOSCF WILL OPTIMIZE      32 ORBITAL ROTATIONS, SOGTOL=   0.250
     MEMORY REQUIRED FOR RHF ITERS=     31304 WORDS.

 ITER EX DEM     TOTAL ENERGY        E CHANGE  DENSITY CHANGE     ORB. GRAD
   1  0  0      -10.0721771989   -10.0721771989   0.262409623   0.000000000
          ---------------START SECOND ORDER SCF---------------
   2  1  0      -10.1430946525    -0.0709174536   0.068042958   0.019065899
   3  2  0      -10.1457682729    -0.0026736204   0.029941001   0.005669718
   4  3  0      -10.1459461606    -0.0001778876   0.001422362   0.000480721
   5  4  0      -10.1459491154    -0.0000029549   0.000738621   0.000191072
   6  5  0      -10.1459494629    -0.0000003474   0.000047259   0.000017629
   7  6  0      -10.1459494656    -0.0000000027   0.000022761   0.000005885
   8  7  0      -10.1459494658    -0.0000000002   0.000001429   0.000000557
   9  8  0      -10.1459494658    -0.0000000000   0.000000297   0.000000169

          -----------------
          DENSITY CONVERGED
          -----------------
     TIME TO FORM FOCK OPERATORS=       0.0 SECONDS (       0.0 SEC/ITER)
     TIME TO SOLVE SCF EQUATIONS=       0.0 SECONDS (       0.0 SEC/ITER)

 FINAL RHF ENERGY IS      -10.1459494658 AFTER   9 ITERATIONS

          ------------
          EIGENVECTORS
          ------------

                      1          2          3          4          5
                   -0.9356    -0.5609    -0.4646    -0.3612     0.1410
                     A          A          A          A          A   
    1  SE 1  S    0.236336  -0.000000   0.118290   0.000000   0.000000
    2  SE 1  S    0.649681  -0.000000   0.440937   0.000000   0.000000
    3  SE 1  X   -0.000000  -0.000000  -0.000000   0.525725   0.000000
    4  SE 1  Y   -0.000000   0.398033  -0.000000   0.000000   0.292753
    5  SE 1  Z    0.103175  -0.000000  -0.420695   0.000000   0.000000
    6  SE 1  X   -0.000000  -0.000000  -0.000000   0.565596   0.000000
    7  SE 1  Y   -0.000000   0.154838  -0.000000   0.000000   1.183314
    8  SE 1  Z    0.034050  -0.000000  -0.342034   0.000000   0.000000
    9  H  2  S    0.144586  -0.260730  -0.174800   0.000000   0.157892
   10  H  2  S    0.052176  -0.268935  -0.152050   0.000000   1.004184
   11  H  3  S    0.144586   0.260730  -0.174800   0.000000  -0.157892
   12  H  3  S    0.052176   0.268935  -0.152050   0.000000  -1.004184

                      6          7          8          9         10
                    0.1604     0.5578     0.5840     0.6057     0.8489
                     A          A          A          A          A   
    1  SE 1  S    0.159586   0.000000   0.042341   0.000000  -0.011460
    2  SE 1  S    1.085802   0.000000   0.180321   0.000000   0.443098
    3  SE 1  X   -0.000000   0.000000  -0.000000   1.256337   0.000000
    4  SE 1  Y   -0.000000  -1.149247  -0.000000   0.000000   0.000000
    5  SE 1  Z    0.275412   0.000000  -1.178134   0.000000  -0.508860
    6  SE 1  X   -0.000000   0.000000  -0.000000  -1.238899   0.000000
    7  SE 1  Y   -0.000000   1.265179  -0.000000   0.000000   0.000000
    8  SE 1  Z    0.956299   0.000000   1.403698   0.000000   0.505149
    9  H  2  S   -0.100808   0.255707  -0.217458   0.000000   0.878214
   10  H  2  S   -1.049550  -0.095536  -0.081506   0.000000  -0.876710
   11  H  3  S   -0.100808  -0.255707  -0.217458   0.000000   0.878214
   12  H  3  S   -1.049550   0.095536  -0.081506   0.000000  -0.876710

                     11         12
                    0.9562    23.5258
                     A          A   
    1  SE 1  S   -0.000000  -1.381567
    2  SE 1  S   -0.000000   1.598483
    3  SE 1  X   -0.000000  -0.000000
    4  SE 1  Y    0.620524  -0.000000
    5  SE 1  Z   -0.000000  -0.067391
    6  SE 1  X   -0.000000  -0.000000
    7  SE 1  Y   -1.013376  -0.000000
    8  SE 1  Z   -0.000000   0.410043
    9  H  2  S    0.891650   0.007016
   10  H  2  S   -1.304032  -0.426474
   11  H  3  S   -0.891650   0.007016
   12  H  3  S    1.304032  -0.426474
 ...... END OF RHF CALCULATION ......
 STEP CPU TIME =     0.00 TOTAL CPU TIME =        0.0 (    0.0 MIN)
 TOTAL WALL CLOCK TIME=        0.0 SECONDS, CPU UTILIZATION IS  66.67%

     ----------------------------------------------------------------
     PROPERTY VALUES FOR THE RHF   SELF-CONSISTENT FIELD WAVEFUNCTION
     ----------------------------------------------------------------

          -----------------
          ENERGY COMPONENTS
          -----------------

         WAVEFUNCTION NORMALIZATION =       1.0000000000

                ONE ELECTRON ENERGY =     -24.7794660004
                TWO ELECTRON ENERGY =      10.0674422781
           NUCLEAR REPULSION ENERGY =       4.5660742565
                                      ------------------
                       TOTAL ENERGY =     -10.1459494658

 ELECTRON-ELECTRON POTENTIAL ENERGY =      10.0674422781
  NUCLEUS-ELECTRON POTENTIAL ENERGY =     -28.9508239773
   NUCLEUS-NUCLEUS POTENTIAL ENERGY =       4.5660742565
                                      ------------------
             TOTAL POTENTIAL ENERGY =     -14.3173074428
               TOTAL KINETIC ENERGY =       4.1713579770
                 VIRIAL RATIO (V/T) =       3.4322893220

  ...... PI ENERGY ANALYSIS ......

 ENERGY ANALYSIS:
            FOCK ENERGY=     -4.6445813789
          BARE H ENERGY=    -24.7794660004
     ELECTRONIC ENERGY =    -14.7120236896
         KINETIC ENERGY=      4.1713579770
          N-N REPULSION=      4.5660742565
           TOTAL ENERGY=    -10.1459494331
        SIGMA PART(1+2)=    -11.4814141536
               (K,V1,2)=      3.0873411775    -22.1278908970      7.5591355659
           PI PART(1+2)=     -3.2306095360
               (K,V1,2)=      1.0840167995     -6.8229330803      2.5083067448
  SIGMA SKELETON, ERROR=     -6.9153398972      0.0000000000
             MIXED PART= 0.00000E+00 0.00000E+00 0.00000E+00 0.00000E+00
 ...... END OF PI ENERGY ANALYSIS ......

          ---------------------------------------
          MULLIKEN AND LOWDIN POPULATION ANALYSES
          ---------------------------------------

     ATOMIC MULLIKEN POPULATION IN EACH MOLECULAR ORBITAL

                      1          2          3          4

                  2.000000   2.000000   2.000000   2.000000

    1             1.635473   0.868745   1.571693   2.000000
    2             0.182263   0.565628   0.214153   0.000000
    3             0.182263   0.565628   0.214153   0.000000

               ----- POPULATIONS IN EACH AO -----
                             MULLIKEN      LOWDIN
              1  SE 1  S      0.42347     0.54107
              2  SE 1  S      1.46104     1.13469
              3  SE 1  X      0.95649     0.96805
              4  SE 1  Y      0.60907     0.53189
              5  SE 1  Z      0.71827     0.67804
              6  SE 1  X      1.04351     1.03195
              7  SE 1  Y      0.25968     0.43793
              8  SE 1  Z      0.60438     0.68707
              9  H  2  S      0.52492     0.49673
             10  H  2  S      0.43712     0.49791
             11  H  3  S      0.52492     0.49673
             12  H  3  S      0.43712     0.49791

          ----- MULLIKEN ATOMIC OVERLAP POPULATIONS -----
          (OFF-DIAGONAL ELEMENTS NEED TO BE MULTIPLIED BY 2)

             1           2           3

    1    5.4842852
    2    0.2958130   0.7045339
    3    0.2958130  -0.0383024   0.7045339

          TOTAL MULLIKEN AND LOWDIN ATOMIC POPULATIONS
       ATOM         MULL.POP.    CHARGE          LOW.POP.     CHARGE
    1 SELENIUM      6.075911   -0.075911         6.010706   -0.010706
    2 HYDROGEN      0.962044    0.037956         0.994647    0.005353
    3 HYDROGEN      0.962044    0.037956         0.994647    0.005353

          -------------------------------
          BOND ORDER AND VALENCE ANALYSIS     BOND ORDER THRESHOLD=0.050
          -------------------------------

                   BOND                       BOND                       BOND
  ATOM PAIR DIST  ORDER      ATOM PAIR DIST  ORDER      ATOM PAIR DIST  ORDER
    1   2  1.470  0.948        1   3  1.470  0.948

                       TOTAL       BONDED        FREE
      ATOM            VALENCE     VALENCE     VALENCE
    1 SELENIUM          1.897       1.897      -0.000
    2 HYDROGEN          0.960       0.960       0.000
    3 HYDROGEN          0.960       0.960      -0.000

          ---------------------
          ELECTROSTATIC MOMENTS
          ---------------------

 POINT   1           X           Y           Z (BOHR)    CHARGE
                 0.000000    0.000000   -0.473704        0.00 (A.U.)
         DX          DY          DZ         /D/  (DEBYE)
     0.000000   -0.000000    1.308332    1.308332
 ...... END OF PROPERTY EVALUATION ......
 STEP CPU TIME =     0.00 TOTAL CPU TIME =        0.0 (    0.0 MIN)
 TOTAL WALL CLOCK TIME=        0.0 SECONDS, CPU UTILIZATION IS  66.67%

 **************************************************************
 *                                                            *
 *         ENTERING VB2000 INTERFACED INTO GAMESS(US)         *
 *                                                            *
 **************************************************************

 **************************************************************
 *                                                            *
 *                        V B 2 0 0 0                         *
 *                                                            *
 *       An ab initio Valence-Bond Program Based on the       *
 *           Generalized Product Function Method and          *
 *                   the Algebrant Algorithm                  *
 *                                                            *
 *                   Version 2.7 October 2013                 *
 *                      GAMESS(US) Version                    *
 *                     Compiler: gfortran                     *
 *                                                            *
 *         Jiabo Li*, Brian Duke** and Roy McWeeny***         *
 *                                                            *
 *        * SciNet Technologies, 9943 Fieldthorn St.,         *
 *                   San Diego, CA 92127, USA                 *
 *                                                            *
 *  ** Monash University Institute of Pharmaceutical Sciences,*
 *     381 Royal Pde, Parkville, Victoria, 3052, Australia    *
 *                                                            *
 * *** Department of Chemistry, University of Pisa,           *
 *     56100 Pisa, Italy                                      *
 *                                                            *
 *  Reference for the software:                               *
 *     Jiabo Li, Brian Duke, and Roy McWeeny, VB2000 Version  *
 *     2.7, SciNet Technologies, San Diego, CA, 2013          *
 *     URL: http://www.scinetec.com or http://www.vb2000.net  *
 *                                                            *
 *  References for the theory:                                *
 *     General:                                               *
 *     Jiabo Li, and Roy McWeeny, "VB2000: Pushing Valence    *
 *     Bond Theory to New Limits", Int. J. Quantum Chem.,     *
 *     89(2002)208-216.                                       *
 *                                                            *
 *     Spin densities:-                                       *
 *     Jiabo Li, Brian J. Duke, Thomas M. Klapoetke, and Roy  *
 *     McWeeny, Spin-Density of Spin-Free Valence Bond Wave   *
 *     Functions and Its Implementation in VB2000. J. Theor.  *
 *     Comp. Chem. 7(2008)853-867.                            *
 *                                                            *
 *     Spin coupled - n electrons in m orbitals:-             *
 *     Peter B. Karadakov, David L. Cooper, Brian J. Duke,    *
 *     and Jiabo Li, Spin-Coupled Theory for N Electrons in   *
 *     M Orbitals Active Spaces,  J. Phys. Chem. A, 116,      *
 *     7238 - 7244, 2012                                      *
 *                                                            *
 *  Copyright (C) 2000-2013 by SciNet Technologies            *
 **************************************************************

 JOB NAME IS exam-vb19                                                       

 VB2000 DIRECTORY IS: /home/brian/qchem/gamess/vb2000                                                 
 MAXIMUM MEMORY USE IS:     6500000
 THIS IS TAKEN AS THE MAXIMUM OF THE UNUSED MEMORY REQUESTED
 IN GAMESS $SYSTEM BLOCK AND MEMORY REQUESTED IN VB2000 DATA

 Input of molecule
 =================
 #! VB(4)/GEN PRINTALL                                                           
                                                                                 
 Title: Selenium dihydride - HW                                                         

 Charge =  0 Multiplicity =  1

 ATOM      ATOMIC                      COORDINATES (ANGS)
           CHARGE         X                   Y                   Z
 SELENIUM   34.0     0.0000000000        0.0000000000       -0.2752608203
 HYDROGEN    1.0     0.0000000000       -1.0776417002        0.7241659336
 HYDROGEN    1.0     0.0000000000        1.0776417002        0.7241659336

 Hartree-Fock Energy from Gamess run =     -10.145949465817

 Basis set size =   12

                    PARAMETER LIMIT VALUES
 Max. no. of atoms                    MAXCEN =   200
 Max. no. of basis functions          MAXBFN =   726
 Max. no. of shells                   MAXSHL =   500
 Max. no. of total primitives         MAXEXP =  1000
 Max. no. of primitives per orbital   MAXPRM =    15
 Max. no. of atoms * no. of orbitals  MAXNAB = 72600
 Increase max basis set size by       NEXTRA =    20
 Max. size for Rumer data             MAXST1 = 33334
 Max. no. of orbitals in group        MAXNOB =   200
 Max. no. of CUBE orbitals            MAXCUB =   100
 Max. no. of groups                   MAXGRP =    99

 BASIS IN $BASIS IS HW      

 VBO LIB NOT AVAILABLE FOR GBASIS = HW      
 ALL FUNCTIONALITY RELATED TO LIB VBO WILL BE DISABLED

 Molecular orbitals by HF method
 ===============================================================================
 MO#                       1         2         3         4         5         6
 E(a.u.)              -0.936    -0.561    -0.465    -0.361     0.141     0.160
 -------------------------------------------------------------------------------

   1  1 Se     s    -0.23634   0.00000  -0.11829   0.00000   0.00000  -0.15959
   2  1 Se     s    -0.64968   0.00000  -0.44094   0.00000   0.00000  -1.08580
   3  1 Se     x     0.00000   0.00000   0.00000   0.52573   0.00000   0.00000
   4  1 Se     y     0.00000  -0.39803   0.00000   0.00000   0.29275   0.00000
   5  1 Se     z    -0.10318   0.00000   0.42070   0.00000   0.00000  -0.27541
   6  1 Se     x     0.00000   0.00000   0.00000   0.56560   0.00000   0.00000
   7  1 Se     y     0.00000  -0.15484   0.00000   0.00000   1.18331   0.00000
   8  1 Se     z    -0.03405   0.00000   0.34203   0.00000   0.00000  -0.95630
   9  2  H     s    -0.14459   0.26073   0.17480   0.00000   0.15789   0.10081
  10  2  H     s    -0.05218   0.26893   0.15205   0.00000   1.00418   1.04955
  11  3  H     s    -0.14459  -0.26073   0.17480   0.00000  -0.15789   0.10081
  12  3  H     s    -0.05218  -0.26893   0.15205   0.00000  -1.00418   1.04955

 MO#                       7         8         9
 E(a.u.)               0.558     0.584     0.606
 -------------------------------------------------------------------------------

   1  1 Se     s     0.00000  -0.04234   0.00000
   2  1 Se     s     0.00000  -0.18032   0.00000
   3  1 Se     x     0.00000   0.00000   1.25634
   4  1 Se     y    -1.14925   0.00000   0.00000
   5  1 Se     z     0.00000   1.17813   0.00000
   6  1 Se     x     0.00000   0.00000  -1.23890
   7  1 Se     y     1.26518   0.00000   0.00000
   8  1 Se     z     0.00000  -1.40370   0.00000
   9  2  H     s     0.25571   0.21746   0.00000
  10  2  H     s    -0.09554   0.08151   0.00000
  11  3  H     s    -0.25571   0.21746   0.00000
  12  3  H     s     0.09554   0.08151   0.00000


 Localized molecular orbitals and the bond labels
 ===============================================================================
 LMO#                      1         2         3         4
 E(a.u.)              -0.706    -0.361    -0.628    -0.628
 Bond Label            1:(0)     1:(0)    3-1(1)    2-1(1)
 -------------------------------------------------------------------------------

   1  1 Se     s    -0.25179   0.00000  -0.05679   0.05679
   2  1 Se     s    -0.77298   0.00001  -0.09751   0.09751
   3  1 Se     x     0.00001   0.52573  -0.00000   0.00000
   4  1 Se     y     0.00000   0.00000  -0.28145  -0.28145
   5  1 Se     z     0.21985  -0.00000  -0.26391   0.26391
   6  1 Se     x     0.00001   0.56560  -0.00000   0.00000
   7  1 Se     y     0.00000   0.00000  -0.10949  -0.10949
   8  1 Se     z     0.21442  -0.00000  -0.18996   0.18996
   9  2  H     s     0.01853  -0.00000   0.02449   0.34423
  10  2  H     s     0.06880  -0.00000   0.08743   0.29290
  11  3  H     s     0.01853  -0.00000  -0.34423  -0.02449
  12  3  H     s     0.06880  -0.00000  -0.29290  -0.08743


 Mulliken population of localized molecular orbitals
 ===============================================================================
 LMO#                      1         2         3         4
 E(a.u.)              -0.706    -0.361    -0.628    -0.628
 Bond Label            1:(0)     1:(0)    3-1(1)    2-1(1)
 -------------------------------------------------------------------------------

   1        Se       2.07115   2.00000   1.00238   1.00238
   2         H      -0.03558  -0.00000  -0.01683   1.01445
   3         H      -0.03558  -0.00000   1.01445  -0.01683


 PARTITIONING OF LMOs INTO GROUPS ($LMOGRP)
 =======================================================================
 LMO#     1  2  3  4
 Group#   1  1  2  2
 Split    0  0  1  1



 Initial guess of orbitals
 ===============================================================================
 ORBITAL#                  1         2         3         4         5         6
 Bond Label            1:(0)     1:(0)    3-1(1)    3-1(1)    2-1(1)    2-1(1)
 -------------------------------------------------------------------------------

   1  1 Se     s    -0.25179   0.00000   0.03811  -0.12822  -0.03811   0.12822
   2  1 Se     s    -0.77298   0.00001   0.11701  -0.25847  -0.11701   0.25847
   3  1 Se     x     0.00001   0.52573  -0.00000  -0.00000   0.00000   0.00000
   4  1 Se     y     0.00000   0.00000  -0.00000  -0.49513   0.00000  -0.49513
   5  1 Se     z     0.21985  -0.00000  -0.03328  -0.43954   0.03328   0.43954
   6  1 Se     x     0.00001   0.56560  -0.00000  -0.00000   0.00000   0.00000
   7  1 Se     y     0.00000   0.00000  -0.00000  -0.19261   0.00000  -0.19261
   8  1 Se     z     0.21442  -0.00000  -0.03246  -0.31007   0.03246   0.31007
   9  2  H     s     0.01853  -0.00000  -0.00280   0.00208   0.60475  -0.00208
  10  2  H     s     0.06880  -0.00000  -0.01041   0.00774   0.52259  -0.00774
  11  3  H     s     0.01853  -0.00000  -0.60475   0.00208   0.00280  -0.00208
  12  3  H     s     0.06880  -0.00000  -0.52259   0.00774   0.01041  -0.00774


      GENERAL CONTROLS ($GENCTL)
 ====================================
 Number of electron groups       =    2
 Maximum macro-iterations        =   12
 Energy threshold           = 10**(- 6)
 Restart calculation(0/1/2)      =    0
 Group#                     1  2
 Num. of electrons          4  4
 Num. of spins              0  0
 Num. of orbitals           2  4
 Method#                    1  2

 SYMBOLIC VB STRUCTURE(S) OF GROUP  2
 STR. NO.       RUMER PATTERN  
    1           1  2   3  4


 MAP FILE IS: /home/brian/qchem/gamess/vb2000/MAP/MAP0400t                                    

 VB-ORBITAL OPTIMIZATION OF GROUP  2 ...
 GROUP =  2  ITER =  1 CMAX =  0.10110507493912
 GROUP =  2  ITER =  2 CMAX =  0.07108349697153
 GROUP =  2  ITER =  3 CMAX =  0.04208953835989
 GROUP =  2  ITER =  4 CMAX =  0.02585079817542
 GROUP =  2  ITER =  5 CMAX =  0.00836948172611
 GROUP =  2  ITER =  6 CMAX =  0.00045725197858

 ENERGY AND DIFF OF MACROITER    1 =    -10.17131502    -10.17131502

 VB-ORBITAL OPTIMIZATION OF GROUP  2 ...
 GROUP =  2  ITER =  1 CMAX =  0.03529808213108
 GROUP =  2  ITER =  2 CMAX =  0.03812713859327
 GROUP =  2  ITER =  3 CMAX =  0.00294292853736
 GROUP =  2  ITER =  4 CMAX =  0.00012326551142

 ENERGY AND DIFF OF MACROITER    2 =    -10.18175167     -0.01043664

 VB-ORBITAL OPTIMIZATION OF GROUP  2 ...
 GROUP =  2  ITER =  1 CMAX =  0.00767196131792
 GROUP =  2  ITER =  2 CMAX =  0.01256116089660
 GROUP =  2  ITER =  3 CMAX =  0.00138397119370
 GROUP =  2  ITER =  4 CMAX =  0.00001708771418

 ENERGY AND DIFF OF MACROITER    3 =    -10.18316454     -0.00141287

 VB-ORBITAL OPTIMIZATION OF GROUP  2 ...
 GROUP =  2  ITER =  1 CMAX =  0.00330108947635
 GROUP =  2  ITER =  2 CMAX =  0.00394707471354
 GROUP =  2  ITER =  3 CMAX =  0.00018240606990

 ENERGY AND DIFF OF MACROITER    4 =    -10.18329401     -0.00012947

 VB-ORBITAL OPTIMIZATION OF GROUP  2 ...
 GROUP =  2  ITER =  1 CMAX =  0.00113042658435
 GROUP =  2  ITER =  2 CMAX =  0.00121441965173
 GROUP =  2  ITER =  3 CMAX =  0.00001958728277

 ENERGY AND DIFF OF MACROITER    5 =    -10.18331015     -0.00001614

 VB-ORBITAL OPTIMIZATION OF GROUP  2 ...
 GROUP =  2  ITER =  1 CMAX =  0.00040213404767

 ENERGY AND DIFF OF MACROITER    6 =    -10.18331233     -0.00000218

 VB-ORBITAL OPTIMIZATION OF GROUP  2 ...
 GROUP =  2  ITER =  1 CMAX =  0.00031968960862

 ENERGY AND DIFF OF MACROITER    7 =    -10.18331263     -0.00000030

 VB-ORBITAL OPTIMIZATION OF GROUP  2 ...
 GROUP =  2  ITER =  1 CMAX =  0.00022415003339


 OVERLAP MATRIX OF VB ORBITALS FOR GROUP   2

        1      2      3      4
 ===============================
   1 1.0000
   2 0.7755 1.0000
   3-0.0521-0.1054 1.0000
   4-0.1054-0.1304 0.7755 1.0000

 ENERGY AND DIFF OF MACROITER    8 =    -10.18331270     -0.00000007


 MULLIKEN CHARGES ON ATOMS
 -------------------------
  ATOM             CHARGE 

    1            27.90554
    2             0.04723
    3             0.04723

 -------------------------


 ORBITALS OF EACH ELECTRON GROUP IN AO BASIS: ORBITAL(GROUP)
 ===========================================================================
    Orbital#             1         2         3         4         5         6
      Group#             1         1         2         2         2         2
 ---------------------------------------------------------------------------
  AO# LABELS
   1  1 Se     s  -0.26579   0.00000   0.03587  -0.02389  -0.03587   0.02389
   2  1 Se     s  -0.78348   0.00001   0.22188  -0.04402  -0.22188   0.04402
   3  1 Se     x  -0.00001  -0.52429  -0.00000   0.00000   0.00000  -0.00000
   4  1 Se     y  -0.00000   0.00000  -0.10227  -0.40041  -0.10227  -0.40041
   5  1 Se     z   0.07875  -0.00000  -0.15345  -0.44001   0.15345   0.44001
   6  1 Se     x  -0.00001  -0.56701  -0.00000  -0.00000  -0.00000   0.00000
   7  1 Se     y   0.00000   0.00000   0.01090  -0.21558   0.01090  -0.21558
   8  1 Se     z   0.10643  -0.00000  -0.13193  -0.31807   0.13193   0.31807
   9  2  H     s  -0.05190   0.00000   0.00957   0.00407   0.59328   0.06457
  10  2  H     s   0.02276  -0.00000   0.05474   0.04524   0.41540   0.12311
  11  3  H     s  -0.05190   0.00000  -0.59328  -0.06457  -0.00957  -0.00407
  12  3  H     s   0.02276  -0.00000  -0.41540  -0.12311  -0.05474  -0.04524


 CALCULATION OF POSITION AND EXTENT OF VB ORBITALS

 DEFAULT CENTROIDS AND EXTENTS.

 MOLECULAR GEOMETRY ABOUT CENTER OF MASS

  Atom#   ATOMIC NO.     X        Y        Z
    1        34        0.0000   0.0000  -0.0246
    2         1        0.0000  -1.0776   0.9748
    3         1        0.0000   1.0776   0.9748

 CENTROIDS OF CHARGE FOR EACH VB GROUP & DISTANCES FROM 3 ATOMS

                                                  DISTANCES FROM ATOMS
 Orbital#   Group#       X        Y        Z        1        2        3
    3         2       -0.0000   0.9061   0.8175   1.2369   1.9899   0.2328
    4         2        0.0000   0.1991   0.1780   0.2840   1.5049   1.1861
    5         2       -0.0000  -0.9061   0.8175   1.2369   0.2328   1.9899
    6         2        0.0000  -0.1991   0.1780   0.2840   1.1861   1.5049

 EXTENT OF ORBITAL MEASURED BY (<R**2>)

 Orbital#   Group#     <X**2>   <Y**2>   <Z**2>   <R**2> Sqrt<R**2>

    3         2        0.2027   0.3922   0.4581   1.0530   1.0261
    4         2        0.3041   0.6019   0.6799   1.5859   1.2593
    5         2        0.2027   0.3922   0.4581   1.0530   1.0261
    6         2        0.3041   0.6019   0.6799   1.5859   1.2593

 WORDS OF DYNAMIC MEMORY USED IN VB2000 CODE ONLY:        7945
 NOTE THAT THIS IS IN ADDITION TO MEMORY USED BY GAMESS
 PRINTED NEAR END OF OUTPUT. ADD THE TWO AMOUNTS TO GIVE
 THE TOTAL MEMORY USED BY THE JOB

 STATISTICS OF CPU TIMES (SECONDS)
 CPU TIME FOR INITIALIZATION        0.000
 CPU TIME FOR MACROITERATION        0.050
 TOTAL CPU TIME                     0.050

 STEP CPU TIME =     0.11 TOTAL CPU TIME =        0.1 (    0.0 MIN)
 TOTAL WALL CLOCK TIME=        0.1 SECONDS, CPU UTILIZATION IS  92.86%

 **************************************************************
 *                                                            *
 *                  ENDING GAMESS(US) VB2000                  *
 *                                                            *
 *  Properties for individual molecular orbitals are correct  *
 *   only for VB modified orbitals in a Hartree-Fock group.   *
 *                                                            *
 **************************************************************

     ----------------------------------
     PROPERTIES FOR THE VB WAVEFUNCTION
     ----------------------------------

          -----------------
          ENERGY COMPONENTS
          -----------------

         WAVEFUNCTION NORMALIZATION =       1.0000000000

                ONE ELECTRON ENERGY =     -24.7670839331
                TWO ELECTRON ENERGY =      10.0176969807
           NUCLEAR REPULSION ENERGY =       4.5660742565
                                      ------------------
                       TOTAL ENERGY =     -10.1833126959

 ELECTRON-ELECTRON POTENTIAL ENERGY =      10.0176969807
  NUCLEUS-ELECTRON POTENTIAL ENERGY =     -29.0159011800
   NUCLEUS-NUCLEUS POTENTIAL ENERGY =       4.5660742565
                                      ------------------
             TOTAL POTENTIAL ENERGY =     -14.4321299429
               TOTAL KINETIC ENERGY =       4.2488172470
                 VIRIAL RATIO (V/T) =       3.3967405760

          ---------------------------------------
          MULLIKEN AND LOWDIN POPULATION ANALYSES
          ---------------------------------------

     ATOMIC MULLIKEN POPULATION IN EACH MOLECULAR ORBITAL

                      1          2          3          4

                  2.000000   2.000000   2.000000   2.000000

    1             1.997401   2.000000   1.571693   2.000000
    2             0.001300   0.000000   0.214153   0.000000
    3             0.001300   0.000000   0.214153   0.000000

               ----- POPULATIONS IN EACH AO -----
                             MULLIKEN      LOWDIN
              1  SE 1  S      0.42796     0.54788
              2  SE 1  S      1.47971     1.14496
              3  SE 1  X      0.95337     0.96576
              4  SE 1  Y      0.61644     0.54160
              5  SE 1  Z      0.70920     0.66970
              6  SE 1  X      1.04663     1.03424
              7  SE 1  Y      0.27379     0.43724
              8  SE 1  Z      0.58736     0.66976
              9  H  2  S      0.54694     0.51381
             10  H  2  S      0.40583     0.48062
             11  H  3  S      0.54694     0.51381
             12  H  3  S      0.40583     0.48062

          ----- MULLIKEN ATOMIC OVERLAP POPULATIONS -----
          (OFF-DIAGONAL ELEMENTS NEED TO BE MULTIPLIED BY 2)

             1           2           3

    1    5.5708422
    2    0.2618082   0.7236651
    3    0.2618082  -0.0327026   0.7236651

          TOTAL MULLIKEN AND LOWDIN ATOMIC POPULATIONS
       ATOM         MULL.POP.    CHARGE          LOW.POP.     CHARGE
    1 SELENIUM      6.094459   -0.094459         6.011133   -0.011133
    2 HYDROGEN      0.952771    0.047229         0.994433    0.005567
    3 HYDROGEN      0.952771    0.047229         0.994433    0.005567

          -------------------------------
          BOND ORDER AND VALENCE ANALYSIS     BOND ORDER THRESHOLD=0.050
          -------------------------------

                   BOND                       BOND                       BOND
  ATOM PAIR DIST  ORDER      ATOM PAIR DIST  ORDER      ATOM PAIR DIST  ORDER
    1   2  1.470  0.888        1   3  1.470  0.888

                       TOTAL       BONDED        FREE
      ATOM            VALENCE     VALENCE     VALENCE
    1 SELENIUM          1.898       1.776       0.122
    2 HYDROGEN          0.962       0.897       0.065
    3 HYDROGEN          0.962       0.897       0.065

          ---------------------
          ELECTROSTATIC MOMENTS
          ---------------------

 POINT   1           X           Y           Z (BOHR)    CHARGE
                 0.000000    0.000000   -0.473704       -0.00 (A.U.)
         DX          DY          DZ         /D/  (DEBYE)
     0.000000    0.000000    1.296557    1.296557
 ...... END OF PROPERTY EVALUATION ......
 STEP CPU TIME =     0.00 TOTAL CPU TIME =        0.1 (    0.0 MIN)
 TOTAL WALL CLOCK TIME=        0.1 SECONDS, CPU UTILIZATION IS  92.86%
               580000  WORDS OF DYNAMIC MEMORY USED
 EXECUTION OF GAMESS TERMINATED NORMALLY Mon Oct 14 07:29:43 2013
 DDI: 263624 bytes (0.3 MB / 0 MWords) used by master data server.

 ----------------------------------------
 CPU timing information for all processes
 ========================================
 0: 0.124 + 0.16 = 0.140
 ----------------------------------------
 ddikick.x: exited gracefully.
unset echo
----- accounting info -----
Files used on the master node titch-64 were:
-rw-r--r-- 1 brian brian     923 Oct 14 07:29 /scr/brian/exam-vb19.F05
-rw-rw-r-- 1 brian brian  180016 Oct 14 07:29 /scr/brian/exam-vb19.F08
-rw-rw-r-- 1 brian brian 1668720 Oct 14 07:29 /scr/brian/exam-vb19.F10
-rw-rw-r-- 1 brian brian      88 Oct 14 07:29 /scr/brian/exam-vb19.TEMP02
-rw-rw-r-- 1 brian brian      88 Oct 14 07:29 /scr/brian/exam-vb19.TEMP03
-rw-rw-r-- 1 brian brian     448 Oct 14 07:29 /scr/brian/exam-vb19.TEMP04
-rw-rw-r-- 1 brian brian     324 Oct 14 07:29 /scr/brian/exam-vb19.V80
-rw-rw-r-- 1 brian brian       0 Oct 14 07:29 /scr/brian/exam-vb19.V82
-rw-rw-r-- 1 brian brian       0 Oct 14 07:29 /scr/brian/exam-vb19.V83
-rw-rw-r-- 1 brian brian    1520 Oct 14 07:29 /scr/brian/exam-vb19.V84
-rw-rw-r-- 1 brian brian   33528 Oct 14 07:29 /scr/brian/exam-vb19.V85
-rw-rw-r-- 1 brian brian  196592 Oct 14 07:29 /scr/brian/exam-vb19.V86
-rw-rw-r-- 1 brian brian  196592 Oct 14 07:29 /scr/brian/exam-vb19.V87
-rw-rw-r-- 1 brian brian     736 Oct 14 07:29 /scr/brian/exam-vb19.V88
-rw-rw-r-- 1 brian brian       0 Oct 14 07:29 /scr/brian/exam-vb19.V89
ls: No match.
ls: No match.
ls: No match.
Mon Oct 14 07:29:46 EST 2013
0.068u 0.024s 0:03.30 2.4%	0+0k 8+16io 0pf+0w
